30
Energy: -173275.452443 eV PBE+vdW (tier 2 basis)
C    0.219675  -0.798013  0.449662
C    -0.132442  -0.885167  1.893354
O    0.301129  -1.929481  2.550046
H    -0.239198  -1.660673  -0.059665
H    1.303843  -0.895960  0.311013
H    -0.145174  0.120331  -0.021355
N    -0.890507  0.051027  2.433924
C    -1.694136  0.089206  3.661734
C    -2.575040  1.370464  3.420919
O    -2.204055  2.159327  2.546907
H    -1.142393  0.907654  1.885072
H    -2.331644  -0.807799  3.692003
C    -0.928502  0.169509  5.005882
C    0.251665  1.168522  5.066880
C    1.368142  0.717094  5.986125
O    1.961317  -0.418003  5.837318
N    1.779911  1.499432  6.960830
H    -0.613141  -0.852961  5.295671
H    -1.652943  0.422137  5.792164
H    -0.106126  2.165835  5.348831
H    0.709680  1.295251  4.068561
H    1.359580  2.408061  7.135713
H    2.555751  1.211541  7.557800
N    -3.648496  1.519425  4.205493
C    -4.570029  2.655030  4.090079
H    -3.933254  0.748887  4.803058
H    -5.477216  2.357754  3.549291
H    -4.070990  3.456175  3.538966
H    -4.843177  3.006802  5.090516
Cd    1.342767  -1.654407  4.284214
