30
Energy: -173275.352601 eV PBE+vdW (tier 2 basis)
C    -0.164463  0.907799  -0.254784
C    -0.421711  0.404513  1.122192
O    0.498086  0.633684  2.023871
H    0.069889  1.979718  -0.235871
H    -0.993897  0.709355  -0.941043
H    0.735821  0.398481  -0.634533
N    -1.523066  -0.280127  1.367753
C    -1.900376  -1.183317  2.462225
C    -3.185478  -1.866875  1.875278
O    -3.740763  -1.296486  0.929416
H    -2.271011  -0.362401  0.638233
H    -1.093617  -1.917250  2.601394
C    -2.194659  -0.535208  3.839238
C    -3.056381  0.750191  3.822390
C    -2.705325  1.717123  4.934595
O    -1.510803  2.176559  5.091914
N    -3.635595  2.134942  5.766276
H    -1.232884  -0.374622  4.365922
H    -2.683260  -1.287332  4.472379
H    -4.122784  0.496839  3.848598
H    -2.913825  1.306192  2.877442
H    -4.598655  1.817040  5.700164
H    -3.408048  2.814582  6.492544
N    -3.631236  -3.002471  2.429534
C    -3.023460  -3.845097  3.457168
H    -4.486268  -3.349762  1.995919
H    -3.158662  -4.895755  3.178116
H    -3.490903  -3.688860  4.439371
H    -1.945798  -3.665612  3.533655
Cd    -0.035100  1.554214  3.766216
