30
Energy: -173275.406266 eV PBE+vdW (tier 2 basis)
C    -0.058628  -0.678633  0.341552
C    0.076829  -0.296508  1.777065
O    1.235531  -0.460433  2.314463
H    -1.080263  -0.550060  -0.031039
H    0.267501  -1.717346  0.202944
H    0.621374  -0.049362  -0.251891
N    -0.984878  0.211000  2.408805
C    -1.019936  0.789997  3.754134
C    -1.269366  -0.320376  4.804640
O    -0.274451  -0.774640  5.504021
H    -1.920019  0.107292  1.987846
H    -0.002847  1.160390  3.966816
C    -1.936694  2.056795  3.885846
C    -2.927225  2.407894  2.763133
C    -4.024493  1.379045  2.557395
O    -3.764032  0.158379  2.704797
N    -5.231375  1.803166  2.185204
H    -1.264876  2.917486  3.989502
H    -2.473498  1.986340  4.841114
H    -2.403865  2.532432  1.800553
H    -3.347355  3.396465  2.992634
H    -5.450455  2.785391  2.057965
H    -5.962622  1.123091  1.991610
N    -2.479751  -0.787659  4.955839
C    -2.882279  -1.849800  5.877440
H    -3.180049  -0.409553  4.282495
H    -3.519293  -2.558564  5.336701
H    -3.459265  -1.416470  6.704699
H    -2.001242  -2.356980  6.277635
Cd    1.526520  -0.704778  4.398080
