30
Energy: -173275.289854 eV PBE+vdW (tier 2 basis)
C    1.941612  0.065495  2.349515
C    0.753081  0.489713  3.159361
O    0.797674  1.210584  4.141642
H    1.712780  -0.684869  1.584224
H    2.709551  -0.326554  3.027735
H    2.373436  0.952864  1.866640
N    -0.503111  -0.015703  2.743858
C    -1.666869  0.512252  3.416480
C    -2.529580  -0.595975  4.029879
O    -3.766319  -0.444442  4.404860
H    -0.581108  -0.457613  1.832073
H    -1.197591  1.011447  4.301976
C    -2.375941  1.663997  2.669105
C    -3.042806  1.353765  1.296160
C    -4.296515  2.169967  1.042894
O    -5.317224  2.094189  1.825826
N    -4.376280  2.966302  -0.001485
H    -1.610909  2.438001  2.520406
H    -3.074055  2.175520  3.363161
H    -3.355470  0.295781  1.221035
H    -2.318940  1.501583  0.486132
H    -3.611237  3.068983  -0.662392
H    -5.230346  3.496357  -0.177926
N    -1.932866  -1.732158  4.309702
C    -2.510105  -2.862179  5.039144
H    -0.947460  -1.774038  4.042028
H    -2.220045  -2.808038  6.096743
H    -2.124283  -3.791380  4.608290
H    -3.599585  -2.837654  4.961633
Cd    -5.050477  0.874496  3.496189
