30
Energy: -173275.629428 eV PBE+vdW (tier 2 basis)
C    -0.534989  -0.255937  -0.430748
C    0.082447  0.334003  0.779903
O    1.325548  0.588541  0.818902
H    -1.576658  -0.554272  -0.284284
H    0.058614  -1.140489  -0.711596
H    -0.442712  0.443006  -1.275209
N    -0.666015  0.615540  1.896931
C    -1.905844  1.390038  1.945754
C    -1.749543  2.669805  1.092293
O    -0.603889  3.166656  0.866995
H    -0.113461  0.631726  2.753725
H    -2.733938  0.791573  1.542456
C    -2.261043  1.721033  3.425965
C    -1.135503  2.086379  4.434822
C    -0.365905  3.391242  4.293214
O    0.719105  3.504874  3.636069
N    -0.813250  4.451393  4.951770
H    -2.749765  0.831576  3.845452
H    -3.023083  2.511241  3.422294
H    -0.383647  1.285758  4.517397
H    -1.622889  2.089391  5.420095
H    -0.292849  5.326676  4.913964
H    -1.601990  4.400003  5.589275
N    -2.826784  3.258131  0.587174
C    -4.240002  2.883470  0.688997
H    -2.622040  4.113627  0.067972
H    -4.730239  3.118694  -0.261349
H    -4.736100  3.448594  1.488830
H    -4.357832  1.812412  0.877047
Cd    1.310181  2.543152  1.826696
