30
Energy: -173275.233433 eV PBE+vdW (tier 2 basis)
C    0.790043  1.316556  1.245663
C    -0.122604  0.170841  1.535798
O    0.395032  -0.862471  2.093894
H    0.286151  2.161897  0.765380
H    1.593813  0.957610  0.585435
H    1.272389  1.647588  2.174805
N    -1.410073  0.273309  1.179514
C    -2.475396  -0.742892  1.001958
C    -3.232402  -1.150179  2.278006
O    -2.687984  -1.312428  3.441042
H    -1.657365  1.187341  0.807488
H    -3.225421  -0.210962  0.405532
C    -2.046055  -1.989262  0.163798
C    -2.490227  -1.913391  -1.304106
C    -4.008977  -1.892958  -1.498023
O    -4.783245  -1.507558  -0.598067
N    -4.465186  -2.271590  -2.696424
H    -2.470850  -2.894741  0.621770
H    -0.955526  -2.105990  0.192515
H    -2.054792  -2.760556  -1.851408
H    -2.084866  -1.006983  -1.783435
H    -3.853605  -2.588913  -3.439930
H    -5.462192  -2.219182  -2.887951
N    -4.515725  -1.354293  2.111127
C    -5.449899  -1.834798  3.124591
H    -4.844404  -1.262467  1.124465
H    -6.082875  -1.002547  3.460726
H    -4.908026  -2.244348  3.980455
H    -6.091401  -2.599299  2.672219
Cd    -0.685044  -1.930811  3.564513
