30
Energy: -173275.774696 eV PBE+vdW (tier 2 basis)
C    -2.893371  -1.683920  0.815451
C    -2.115303  -1.986577  2.055571
O    -1.304964  -2.865775  2.210457
H    -3.903326  -1.305878  1.019940
H    -2.944952  -2.582043  0.192067
H    -2.357141  -0.911045  0.241049
N    -2.391910  -1.103113  3.203251
C    -1.298952  -1.037167  4.207264
C    -1.155952  -2.437310  4.843199
O    -2.200851  -3.050260  5.262925
H    -2.700548  -0.177636  2.895447
H    -0.360649  -0.768178  3.701406
C    -1.599336  -0.020895  5.360946
C    -2.466336  1.226789  5.079175
C    -3.952216  1.127875  5.419735
O    -4.643300  0.055639  5.386222
N    -4.568610  2.248822  5.757223
H    -0.621073  0.328129  5.713542
H    -2.019689  -0.556420  6.228775
H    -2.391901  1.568048  4.032614
H    -2.052146  2.061887  5.659784
H    -4.080499  3.136469  5.832669
H    -5.567044  2.238044  5.960385
N    0.046850  -2.923409  5.050893
C    0.330740  -4.214264  5.686895
H    0.829796  -2.431271  4.625716
H    0.431102  -4.991278  4.917834
H    -0.484955  -4.475068  6.365494
H    1.268077  -4.130931  6.245299
Cd    -3.941699  -1.881691  4.858187
