30
Energy: -173275.502504 eV PBE+vdW (tier 2 basis)
C    -0.238126  0.361647  0.112952
C    -0.780692  -0.377902  1.296391
O    -0.521456  -1.563985  1.535290
H    -0.629535  1.379396  0.008377
H    -0.451804  -0.211961  -0.797265
H    0.855651  0.408975  0.208878
N    -1.604296  0.324776  2.156499
C    -2.009304  -0.261832  3.427454
C    -3.202246  -1.240071  3.195010
O    -4.449582  -1.020579  3.510448
H    -1.893902  1.267277  1.914163
H    -1.169730  -0.906917  3.736515
C    -2.201925  0.832624  4.488732
C    -2.122764  0.333576  5.961885
C    -2.998797  1.114094  6.922603
O    -4.279388  1.148023  6.786603
N    -2.464482  1.763352  7.934784
H    -3.127623  1.410766  4.292602
H    -1.405979  1.573630  4.337658
H    -1.077438  0.340551  6.293809
H    -2.443072  -0.720953  6.052413
H    -1.462212  1.770965  8.103236
H    -3.060628  2.263967  8.594679
N    -2.887935  -2.329338  2.544246
C    -3.809972  -3.379099  2.116638
H    -1.895182  -2.329522  2.185293
H    -3.268709  -4.330344  2.116324
H    -4.164060  -3.173352  1.097261
H    -4.668637  -3.432836  2.791028
Cd    -5.008173  0.101073  5.133496
