30
Energy: -173276.364715 eV PBE+vdW (tier 2 basis)
C    -2.771393  0.304240  0.838973
C    -1.872499  0.182032  2.028425
O    -0.637778  0.010054  1.850310
H    -2.586382  -0.536899  0.158918
H    -2.499025  1.217996  0.291085
H    -3.835960  0.345077  1.092207
N    -2.446357  0.262024  3.252960
C    -1.822573  0.261942  4.588681
C    -0.821086  1.439191  4.728568
O    0.414837  1.325767  4.442683
H    -3.454775  0.384619  3.248563
H    -2.660222  0.492638  5.254231
C    -1.207707  -1.089846  5.112413
C    -1.282717  -2.360360  4.225734
C    0.060220  -3.046765  4.035938
O    1.109693  -2.419619  3.670790
N    0.143057  -4.351397  4.233106
H    -1.716846  -1.311074  6.057047
H    -0.166995  -0.905459  5.420702
H    -1.648286  -2.130162  3.212801
H    -2.008421  -3.068550  4.640835
H    -0.649732  -4.903844  4.543789
H    1.025021  -4.834316  4.067583
N    -1.262591  2.601909  5.182649
C    -2.615319  2.971796  5.615899
H    -0.544557  3.326120  5.238432
H    -2.936747  2.374697  6.478513
H    -3.335852  2.878795  4.794342
H    -2.590255  4.020383  5.924767
Cd    1.021245  -0.341984  3.227056
