30
Energy: -173275.91335 eV PBE+vdW (tier 2 basis)
C    -0.158922  3.302028  1.766502
C    -0.228704  1.996192  2.484572
O    0.750777  1.636126  3.203145
H    0.716604  3.299038  1.103155
H    0.002459  4.102852  2.501103
H    -1.059256  3.520867  1.182631
N    -1.350194  1.241598  2.338901
C    -1.487076  0.004386  3.089286
C    -0.777734  -1.185801  2.403550
O    0.327592  -1.597767  2.893385
H    -2.093963  1.595101  1.743380
H    -0.874745  0.224979  3.961029
C    -2.804787  -0.324269  3.809120
C    -2.503608  -1.278455  5.001355
C    -1.625995  -0.720442  6.121136
O    -0.395477  -0.408783  5.999222
N    -2.188945  -0.574458  7.313504
H    -3.552169  -0.802161  3.164797
H    -3.243317  0.614945  4.174983
H    -2.007391  -2.193166  4.639374
H    -3.459977  -1.604898  5.426715
H    -3.156999  -0.822588  7.490573
H    -1.631761  -0.243219  8.099102
N    -1.270536  -1.784915  1.332991
C    -2.492240  -1.503549  0.579857
H    -0.686822  -2.545558  0.977451
H    -3.180103  -2.355515  0.648265
H    -2.235409  -1.340688  -0.473698
H    -2.994140  -0.610717  0.958945
Cd    1.105606  -0.212210  4.398242
