30
Energy: -173276.264561 eV PBE+vdW (tier 2 basis)
C    -2.902850  0.454813  0.465731
C    -1.981595  0.154546  1.607947
O    -0.843489  -0.323072  1.329557
H    -3.903573  0.773976  0.774533
H    -2.983871  -0.437915  -0.168014
H    -2.447488  1.241521  -0.152387
N    -2.450070  0.413214  2.847958
C    -1.923966  0.245502  4.224856
C    -0.688799  1.112611  4.530280
O    0.393875  1.063019  3.872394
H    -3.390226  0.798629  2.834810
H    -2.723132  0.695198  4.825304
C    -1.894194  -1.217186  4.777863
C    -1.206418  -2.412184  4.055481
C    0.233475  -2.716939  4.427215
O    1.235547  -2.177613  3.853938
N    0.462148  -3.599494  5.388817
H    -2.953178  -1.497036  4.849926
H    -1.538753  -1.155186  5.817479
H    -1.269193  -2.318195  2.962073
H    -1.805710  -3.300899  4.294788
H    -0.285757  -4.112723  5.843966
H    1.420871  -3.831132  5.644377
N    -0.764979  1.959023  5.552311
C    -1.895236  2.264733  6.438480
H    0.096409  2.483980  5.709959
H    -1.554790  3.007318  7.165538
H    -2.224580  1.378287  6.993942
H    -2.734204  2.701236  5.881671
Cd    0.906014  -0.547864  2.530686
