30
Energy: -173275.447452 eV PBE+vdW (tier 2 basis)
C    0.629303  -0.510378  0.253583
C    0.451305  0.267236  1.514063
O    1.494242  0.860056  1.981399
H    1.448920  -1.229775  0.376186
H    0.929199  0.183747  -0.545498
H    -0.286106  -1.029300  -0.049692
N    -0.762370  0.328416  2.067308
C    -1.149878  1.167821  3.207187
C    -0.794877  0.471338  4.541945
O    0.182707  0.933771  5.261856
H    -1.492193  -0.313280  1.736425
H    -0.501754  2.060470  3.162188
C    -2.573124  1.783474  3.067299
C    -3.853747  1.000345  3.416271
C    -3.998167  -0.333447  2.711157
O    -3.034867  -1.143331  2.726674
N    -5.149396  -0.622121  2.107398
H    -2.633388  2.149172  2.031366
H    -2.572065  2.682031  3.699694
H    -4.704015  1.663182  3.208495
H    -3.897824  0.795813  4.498095
H    -5.934245  0.020188  2.093524
H    -5.276760  -1.539158  1.685481
N    -1.472720  -0.587541  4.897606
C    -1.234032  -1.390785  6.095466
H    -2.182592  -0.910079  4.186823
H    -0.250675  -1.164723  6.515773
H    -1.302798  -2.449733  5.823426
H    -2.003894  -1.170785  6.846935
Cd    1.752814  1.542378  3.973561
