30
Energy: -173275.165265 eV PBE+vdW (tier 2 basis)
C    -0.142787  -0.997821  -1.245246
C    0.101842  -0.752012  0.198495
O    1.314004  -0.905301  0.641271
H    -1.153249  -0.719396  -1.557677
H    0.053271  -2.052378  -1.486420
H    0.590625  -0.412540  -1.820106
N    -0.841711  -0.383355  1.057417
C    -2.296797  -0.472948  1.096560
C    -2.625102  0.480751  2.286720
O    -1.710754  0.682260  3.111724
H    -0.599153  0.094639  1.971197
H    -2.753399  -0.119916  0.163620
C    -2.783730  -1.922835  1.410261
C    -1.853071  -2.830455  2.255757
C    -1.458229  -2.421109  3.664853
O    -0.252301  -2.137506  4.009942
N    -2.372447  -2.425193  4.616265
H    -2.933414  -2.455389  0.461389
H    -3.776120  -1.861225  1.877281
H    -0.926848  -3.045697  1.703687
H    -2.357101  -3.806379  2.338707
H    -3.321292  -2.746855  4.449869
H    -2.116605  -2.172139  5.569872
N    -3.851597  0.990763  2.397184
C    -4.943116  0.945929  1.418670
H    -3.972744  1.606620  3.200516
H    -5.101679  -0.067306  1.032672
H    -4.760770  1.634766  0.583107
H    -5.864025  1.253034  1.922643
Cd    1.196279  -1.462292  2.664415
