30
Energy: -173275.391702 eV PBE+vdW (tier 2 basis)
C    2.373315  -0.190365  2.741664
C    1.271586  0.388041  3.575206
O    1.376150  0.590961  4.790161
H    3.210997  0.521317  2.739073
H    2.084119  -0.399801  1.705860
H    2.738939  -1.108782  3.216534
N    0.091350  0.708171  2.928028
C    -0.946524  1.478320  3.602032
C    -1.812498  0.588983  4.549676
O    -3.094996  0.362355  4.463328
H    -0.018764  0.429500  1.959652
H    -0.406757  2.132335  4.308390
C    -1.682596  2.431335  2.640142
C    -2.209947  1.860965  1.285108
C    -3.485472  2.530167  0.807674
O    -4.582546  2.428232  1.473709
N    -3.499735  3.221458  -0.312003
H    -0.987200  3.248365  2.407834
H    -2.483867  2.945094  3.205971
H    -2.444932  0.782868  1.349888
H    -1.430525  1.945980  0.518100
H    -2.671362  3.335527  -0.889465
H    -4.366475  3.652063  -0.636159
N    -1.143836  0.034958  5.525022
C    -1.691189  -0.840823  6.560010
H    -0.106003  0.228646  5.494097
H    -1.683021  -1.883509  6.215275
H    -2.716922  -0.550273  6.804526
H    -1.055927  -0.755649  7.446416
Cd    -4.405156  1.371196  3.263018
