30
Energy: -173275.429457 eV PBE+vdW (tier 2 basis)
C    1.275580  -0.141299  -0.174866
C    0.883110  0.352280  1.177570
O    1.727301  1.083843  1.805054
H    0.511126  -0.771121  -0.642095
H    2.223797  -0.690099  -0.105564
H    1.461781  0.731562  -0.818636
N    -0.327161  0.025373  1.654942
C    -1.096243  0.637236  2.765839
C    -0.894097  -0.166094  4.068462
O    0.246529  -0.111877  4.697126
H    -0.869846  -0.601580  1.062548
H    -0.664518  1.637802  2.948535
C    -2.537380  0.827526  2.249228
C    -3.547149  1.510637  3.199213
C    -4.634877  0.539491  3.655123
O    -4.344593  -0.645813  3.927604
N    -5.882213  0.998038  3.759544
H    -2.932300  -0.153324  1.943058
H    -2.450435  1.426091  1.333313
H    -3.988607  2.386387  2.709540
H    -3.063057  1.890402  4.113505
H    -6.140348  1.944097  3.503943
H    -6.614865  0.375840  4.092020
N    -1.844773  -0.913664  4.547419
C    -1.708816  -1.710457  5.771164
H    -2.848740  -0.860628  4.137660
H    -2.687758  -2.139879  5.998147
H    -1.372011  -1.085229  6.606818
H    -0.981723  -2.517593  5.619023
Cd    1.819285  1.037052  3.921765
