30
Energy: -173275.083244 eV PBE+vdW (tier 2 basis)
C    0.708093  0.356843  0.266987
C    -0.083466  0.256896  1.528314
O    -0.603853  1.325231  2.019739
H    1.519408  1.086497  0.388218
H    0.045159  0.753972  -0.516782
H    1.121031  -0.599856  -0.069820
N    -0.254533  -0.949161  2.079049
C    -1.185715  -1.418748  3.121861
C    -1.090396  -0.670160  4.465497
O    -0.046691  0.029134  4.793624
H    0.225814  -1.703230  1.590408
H    -2.210771  -1.248981  2.753737
C    -0.949070  -2.953372  3.245748
C    -1.859706  -3.767493  4.186360
C    -3.351337  -3.549338  3.969331
O    -3.857725  -2.415011  4.145723
N    -4.097098  -4.589528  3.592997
H    0.092417  -3.121874  3.557503
H    -1.053714  -3.358350  2.227098
H    -1.646258  -3.527188  5.238233
H    -1.591493  -4.824361  4.061546
H    -3.716165  -5.522413  3.483216
H    -5.101355  -4.467688  3.484285
N    -2.112882  -0.813409  5.267616
C    -2.232109  -0.173394  6.571962
H    -2.914783  -1.436976  4.892381
H    -1.274420  -0.193019  7.102688
H    -2.993505  -0.704301  7.150369
H    -2.559923  0.872764  6.460406
Cd    -0.010956  1.961515  3.955707
