30
Energy: -173275.861711 eV PBE+vdW (tier 2 basis)
C    0.228402  0.063164  -0.230170
C    0.312050  -0.244334  1.218204
O    1.397924  -0.631592  1.741050
H    -0.775902  0.345325  -0.558122
H    0.531458  -0.846741  -0.774443
H    0.965225  0.831666  -0.501272
N    -0.792429  -0.125780  2.032372
C    -1.650109  1.057786  2.143219
C    -0.768910  2.324592  2.260223
O    0.356326  2.295111  2.853925
H    -0.753213  -0.718708  2.861745
H    -2.292144  1.138020  1.253298
C    -2.580946  0.925885  3.378278
C    -2.004605  1.180351  4.801712
C    -1.232245  0.055924  5.465651
O    -0.043631  -0.284306  5.144614
N    -1.824674  -0.616320  6.440368
H    -3.072656  -0.056862  3.325572
H    -3.383450  1.662215  3.242756
H    -2.859018  1.431482  5.442861
H    -1.357006  2.069698  4.809947
H    -1.323620  -1.362064  6.921402
H    -2.764334  -0.397346  6.756695
N    -1.252666  3.447543  1.755209
C    -0.605902  4.762025  1.821286
H    -2.143714  3.397562  1.265137
H    -1.271864  5.471974  2.325700
H    -0.403924  5.120646  0.804982
H    0.331246  4.674768  2.374740
Cd    1.320332  0.480317  3.663060
