30
Energy: -173275.512573 eV PBE+vdW (tier 2 basis)
C    -0.420782  -1.701950  -0.341372
C    -0.782065  -0.652955  0.651412
O    -0.250563  0.515813  0.472112
H    -0.678520  -1.353526  -1.350612
H    -0.916676  -2.656716  -0.138220
H    0.669122  -1.847056  -0.322401
N    -1.596263  -0.954307  1.653335
C    -2.015591  -0.140017  2.795152
C    -2.484959  -1.209672  3.845129
O    -3.057732  -2.193044  3.388967
H    -2.014045  -1.896215  1.706419
H    -1.147913  0.416906  3.195985
C    -3.233164  0.764039  2.416797
C    -3.670851  1.841734  3.417154
C    -2.904456  3.154777  3.470492
O    -1.856013  3.441552  2.783935
N    -3.357703  4.091450  4.281974
H    -4.081515  0.078106  2.273654
H    -3.109042  1.197925  1.404160
H    -3.703543  1.430156  4.438328
H    -4.715224  2.107300  3.189030
H    -4.198730  3.961959  4.838567
H    -2.887418  4.994133  4.336921
N    -2.295006  -0.964186  5.155884
C    -1.384856  -0.005020  5.781652
H    -2.645707  -1.714772  5.751220
H    -0.332404  -0.301992  5.671152
H    -1.614584  0.037277  6.850741
H    -1.520871  1.009198  5.384339
Cd    -0.864708  2.178929  1.493034
