30
Energy: -173275.532736 eV PBE+vdW (tier 2 basis)
C    0.751113  0.140884  0.136367
C    -0.142072  -0.562941  1.101011
O    -0.450388  -1.784060  0.787898
H    0.238498  0.200060  -0.835181
H    1.663821  -0.448557  -0.020772
H    1.008921  1.151248  0.469828
N    -0.555203  0.082282  2.181976
C    -1.655481  -0.159479  3.123086
C    -2.331830  1.276343  3.194261
O    -1.602520  2.233761  2.942820
H    -0.345580  1.103392  2.235356
H    -2.385872  -0.878183  2.706817
C    -1.190517  -0.505880  4.560722
C    -0.455068  -1.843909  4.854992
C    -1.351753  -3.050910  5.008800
O    -1.815119  -3.716812  4.004556
N    -1.707415  -3.449096  6.213418
H    -2.063075  -0.422683  5.224047
H    -0.507637  0.298867  4.867161
H    0.117564  -1.708255  5.782465
H    0.306893  -2.061520  4.085831
H    -1.359848  -2.997534  7.055033
H    -2.315586  -4.260159  6.327291
N    -3.615102  1.327997  3.564817
C    -4.352362  2.586149  3.730047
H    -4.127791  0.462668  3.700766
H    -5.176158  2.635332  3.008420
H    -3.664008  3.416468  3.553627
H    -4.753862  2.652965  4.747705
Cd    -1.294564  -3.084439  2.110836
