30
Energy: -173276.493254 eV PBE+vdW (tier 2 basis)
C    -0.314280  0.220948  -0.393593
C    -0.190351  -0.291889  1.005364
O    0.775278  -1.067024  1.270761
H    -1.172838  0.883545  -0.544475
H    -0.392084  -0.634865  -1.078068
H    0.608921  0.754971  -0.656892
N    -1.126380  0.106831  1.896415
C    -1.297298  -0.265502  3.316488
C    -0.143164  0.321945  4.159091
O    0.964253  -0.279935  4.298470
H    -1.837045  0.726033  1.517281
H    -2.209957  0.254033  3.628931
C    -1.562354  -1.793726  3.479321
C    -1.344305  -2.420997  4.879975
C    -0.432129  -3.640750  4.875903
O    0.657462  -3.697512  4.216888
N    -0.772576  -4.681187  5.618016
H    -1.000771  -2.355133  2.716967
H    -2.604964  -1.953001  3.177179
H    -2.306968  -2.683547  5.332920
H    -0.869835  -1.710366  5.576033
H    -1.637125  -4.708618  6.149144
H    -0.152799  -5.487904  5.674652
N    -0.320881  1.494577  4.755060
C    -1.492447  2.378895  4.736506
H    0.499522  1.826236  5.264693
H    -2.382701  1.876263  5.133940
H    -1.688727  2.761424  3.727215
H    -1.275321  3.232714  5.384183
Cd    1.380862  -2.046459  3.081632
