30
Energy: -173276.471299 eV PBE+vdW (tier 2 basis)
C    -0.238662  -0.004962  0.210466
C    -0.069172  0.076862  1.694796
O    1.069878  0.334729  2.166986
H    -1.231651  -0.343565  -0.103012
H    0.526526  -0.673977  -0.203081
H    -0.049950  0.991276  -0.215149
N    -1.167500  -0.138146  2.456931
C    -1.353827  -0.052227  3.918933
C    -1.039699  1.372450  4.448346
O    0.134708  1.756268  4.751292
H    -2.015137  -0.337586  1.933598
H    -2.434033  -0.193876  4.037598
C    -0.666237  -1.153255  4.811743
C    0.150338  -2.288404  4.141966
C    1.549615  -2.444296  4.715946
O    2.345915  -1.459422  4.870235
N    1.970067  -3.652629  5.049195
H    -1.468587  -1.616167  5.397080
H    -0.051967  -0.650356  5.575133
H    0.284977  -2.112670  3.063297
H    -0.391142  -3.238132  4.215105
H    1.377236  -4.472925  4.971934
H    2.920451  -3.782115  5.393313
N    -2.057045  2.203322  4.599362
C    -1.917582  3.583948  5.079880
H    -2.993966  1.867115  4.394979
H    -2.895134  4.068502  5.021012
H    -1.197964  4.127198  4.457247
H    -1.567948  3.588837  6.119451
Cd    1.792099  0.488684  4.217545
