30
Energy: -173275.821904 eV PBE+vdW (tier 2 basis)
C    -0.037147  1.435187  0.927606
C    0.275453  0.172324  1.665361
O    1.503430  -0.096424  1.919274
H    -0.066475  1.220112  -0.152211
H    0.764645  2.162991  1.088239
H    -0.999812  1.868932  1.221836
N    -0.629158  -0.732575  2.091586
C    -1.982538  -0.876651  1.593100
C    -2.948413  -0.274025  2.621675
O    -2.434522  0.108005  3.756602
H    -1.450439  -0.044101  3.653590
H    -2.140177  -0.340510  0.642003
C    -2.259994  -2.386319  1.323002
C    -2.071175  -3.338357  2.544212
C    -0.967135  -4.372799  2.383064
O    0.276975  -4.095934  2.418318
N    -1.314909  -5.637989  2.206349
H    -1.589593  -2.668470  0.500310
H    -3.276588  -2.510640  0.927522
H    -3.013672  -3.857411  2.753337
H    -1.832514  -2.776911  3.459889
H    -0.594410  -6.352088  2.109014
H    -2.284276  -5.937610  2.190522
N    -4.228619  -0.130468  2.415082
C    -5.203133  0.453691  3.351325
H    -4.585587  -0.422950  1.506336
H    -5.692104  1.305873  2.865232
H    -4.690804  0.784942  4.256785
H    -5.957136  -0.301400  3.602652
Cd    1.111372  -2.146673  2.538641
