30
Energy: -173275.831548 eV PBE+vdW (tier 2 basis)
C    -0.647419  2.387699  0.075450
C    -0.719021  1.716184  1.406261
O    -0.919083  2.423294  2.438149
H    0.180814  3.109612  0.085283
H    -1.568600  2.964842  -0.082165
H    -0.510245  1.686446  -0.754483
N    -0.569265  0.366908  1.451401
C    -0.696893  -0.362443  2.703627
C    0.610940  -0.383252  3.520887
O    0.718068  0.444191  4.488363
H    -0.389934  -0.120883  0.577477
H    -1.324726  0.308741  3.279131
C    -1.594446  -1.620199  2.727414
C    -3.013928  -1.240885  3.228777
C    -3.102569  -0.680420  4.649654
O    -2.606994  0.433337  5.018859
N    -3.785454  -1.392219  5.537337
H    -1.152513  -2.381070  3.384671
H    -1.685306  -2.079206  1.733947
H    -3.663638  -2.120666  3.148127
H    -3.445192  -0.477461  2.561733
H    -4.248794  -2.261633  5.292975
H    -3.912907  -1.035917  6.482804
N    1.608258  -1.206324  3.250776
C    1.708459  -2.216322  2.198672
H    2.420884  -1.101709  3.862266
H    1.854873  -3.206704  2.646613
H    2.565533  -1.989185  1.553084
H    0.801477  -2.237910  1.589350
Cd    -0.970379  1.850155  4.578559
