30
Energy: -173275.166656 eV PBE+vdW (tier 2 basis)
C    0.390065  -0.811120  0.736319
C    0.243919  0.032831  1.959685
O    1.130613  0.963765  2.111202
H    0.307539  -0.167607  -0.151181
H    -0.373883  -1.594399  0.690782
H    1.392461  -1.258196  0.715190
N    -0.766960  -0.214914  2.784662
C    -1.178966  0.625613  3.898705
C    -0.309539  0.406615  5.164648
O    0.457706  1.380486  5.538941
H    -1.505061  -0.985631  2.563094
H    -0.951837  1.677740  3.636086
C    -2.723508  0.694840  4.072247
C    -3.616651  -0.527780  4.347143
C    -3.692044  -1.580095  3.246118
O    -2.701936  -1.874385  2.535430
N    -4.853950  -2.220385  3.098880
H    -3.081829  1.187889  3.156192
H    -2.901007  1.416883  4.882586
H    -4.622257  -0.129963  4.543517
H    -3.331702  -1.042231  5.275133
H    -5.677184  -1.999535  3.647233
H    -4.927288  -2.961674  2.406621
N    -0.269622  -0.699592  5.878662
C    -0.910989  -2.001152  5.683724
H    0.369639  -0.639263  6.675784
H    -1.693188  -2.158000  6.436401
H    -0.143668  -2.772609  5.821219
H    -1.320984  -2.093574  4.676096
Cd    1.385245  2.202799  3.799037
