30
Energy: -173275.746902 eV PBE+vdW (tier 2 basis)
C    1.140374  -0.222191  1.040283
C    0.220701  -0.780446  2.079273
O    0.508140  -1.916931  2.600103
H    0.784705  -0.531324  0.044748
H    2.141935  -0.644494  1.169546
H    1.190881  0.872561  1.066968
N    -0.908903  -0.194995  2.524144
C    -1.649902  0.848770  1.842756
C    -1.331839  2.188482  2.509365
O    -0.676345  2.136515  3.638850
H    -0.445108  1.171688  3.760461
H    -1.380475  0.928933  0.776840
C    -3.169418  0.497156  1.909856
C    -3.758593  0.297316  3.340323
C    -4.281151  -1.103056  3.625981
O    -3.532005  -2.120775  3.795722
N    -5.590600  -1.276968  3.715212
H    -3.283300  -0.416374  1.311383
H    -3.752238  1.267115  1.390297
H    -4.568305  1.017228  3.506550
H    -3.011646  0.508494  4.119893
H    -5.965584  -2.201996  3.920736
H    -6.248207  -0.510758  3.614428
N    -1.658983  3.369830  2.059037
C    -2.351631  3.708895  0.811670
H    -1.370085  4.156983  2.646688
H    -1.835834  4.559076  0.352206
H    -3.389251  3.996039  1.022685
H    -2.332394  2.867450  0.114119
Cd    -1.419365  -2.156133  3.583211
