18
Energy: -167520.904596 eV PBE+vdW (tier 2 basis)
N    -0.066715  0.095904  -0.404614
C    -0.447514  0.288023  0.946760
C    0.781554  0.531349  1.906784
O    0.646888  0.612399  3.113207
H    0.141182  0.910805  -0.978071
H    0.443086  -0.744319  -0.671940
H    -1.020113  1.228102  1.013551
C    -1.339317  -0.904123  1.424857
C    -2.334440  -0.643136  2.547474
O    -3.512582  -1.149345  2.552353
N    -1.986429  0.105522  3.567405
H    -0.714932  -1.758180  1.736408
H    -1.913543  -1.226224  0.547223
H    -1.005674  0.441803  3.639311
H    -2.639653  0.270409  4.333378
O    1.915067  0.655275  1.246212
H    2.657815  0.845902  1.863373
Cd    -4.708158  -2.554378  1.433477
