18
Energy: -167521.671497 eV PBE+vdW (tier 2 basis)
N    2.162400  -5.167965  -0.772465
C    1.956956  -5.468896  0.636477
C    3.043669  -6.518094  1.002479
O    3.104071  -7.203855  2.065289
H    1.593398  -5.707071  -1.425896
H    2.102706  -4.176450  -1.002456
H    2.296045  -4.582710  1.203692
C    0.498441  -5.700178  1.149314
C    -0.221800  -6.971276  0.753288
O    -0.021690  -8.099240  1.338347
N    -1.114081  -6.938837  -0.218454
H    -0.083468  -4.828049  0.822880
H    0.493235  -5.647748  2.249659
H    -1.384475  -6.072994  -0.677899
H    -1.630109  -7.784122  -0.468005
O    4.005585  -6.574441  0.159687
H    3.686140  -5.935849  -0.593139
Cd    1.511954  -8.382776  2.768731
