18
Energy: -167520.657562 eV PBE+vdW (tier 2 basis)
N    -0.303845  0.477779  0.250407
C    -0.021854  -0.302588  1.507859
C    1.444655  -0.214239  1.965518
O    1.903353  -1.012601  2.743362
H    -0.228328  1.492539  0.403727
H    -1.308031  0.201868  -0.013793
H    -0.626026  0.180306  2.291625
C    -0.458328  -1.773222  1.366651
C    -1.887665  -1.951980  0.916272
O    -2.522733  -3.121123  1.016776
N    -2.509191  -1.008036  0.307359
H    -0.292090  -2.239667  2.348473
H    0.197714  -2.312106  0.662303
H    0.332014  0.235182  -0.521898
H    -3.485722  -1.161144  0.031421
O    2.063146  0.839526  1.418449
H    2.981834  0.906405  1.759725
Cd    -2.229902  -4.845898  2.120763
