18
Energy: -167521.963641 eV PBE+vdW (tier 2 basis)
N    0.621260  -1.136598  -0.162430
C    0.284956  -0.603323  1.199683
C    1.567688  -0.185288  1.989174
O    1.549897  -0.053411  3.182746
H    1.147668  -0.430765  -0.694709
H    1.250229  -1.947988  -0.091529
H    -0.263815  0.339620  1.044413
C    -0.561983  -1.572090  2.052404
C    -2.051549  -1.574778  1.765383
O    -2.540678  -1.651615  0.577898
N    -2.891775  -1.524110  2.777096
H    -0.380162  -1.305013  3.101736
H    -0.198728  -2.608884  1.941564
H    -2.576776  -1.436572  3.740675
H    -3.897804  -1.578346  2.611336
O    2.588145  0.032095  1.153247
H    3.373961  0.349413  1.651302
Cd    -1.309038  -1.747482  -1.147529
