18
Energy: -167520.740049 eV PBE+vdW (tier 2 basis)
N    -0.106528  -0.438546  0.103375
C    -0.122920  0.016893  1.448740
C    1.335825  0.482902  1.878120
O    2.067599  -0.200911  2.564063
H    -0.059281  0.255682  -0.640699
H    0.312988  -1.336038  -0.131466
H    -0.706454  0.950916  1.485724
C    -0.780110  -0.962722  2.452028
C    -0.362593  -2.424796  2.461527
O    -1.214159  -3.384354  2.405858
N    0.913907  -2.737275  2.537855
H    -1.857962  -0.929594  2.248950
H    -0.628885  -0.570044  3.470560
H    1.616765  -1.990277  2.631712
H    1.202191  -3.714213  2.586457
O    1.602347  1.663145  1.355425
H    2.515765  1.950070  1.581560
Cd    -3.316495  -3.685839  2.714211
