18
Energy: -167521.698926 eV PBE+vdW (tier 2 basis)
N    -0.156189  0.937855  1.004688
C    -0.572065  -0.321430  1.484364
C    0.501831  -0.998372  2.370287
O    0.216587  -1.904945  3.185872
H    0.059054  1.658645  1.690340
H    -2.710311  -1.318146  -1.666358
H    -1.456621  -0.265921  2.196676
C    -0.952019  -1.283485  0.305934
C    -2.384190  -1.795047  0.303332
O    -2.928244  -2.337156  1.328153
N    -3.080392  -1.730620  -0.813986
H    -0.317653  -2.185886  0.316825
H    -0.707809  -0.777779  -0.636208
H    -0.631055  1.311225  0.187914
H    -4.016302  -2.136304  -0.854641
O    1.711773  -0.569624  2.196392
H    2.360955  -1.029139  2.779397
Cd    -1.918350  -2.444872  3.204020
