18
Energy: -167520.836435 eV PBE+vdW (tier 2 basis)
N    -0.573685  0.451529  0.391923
C    -0.436274  0.027403  1.720041
C    1.024839  -0.476202  1.916583
O    1.665243  -0.980746  1.038369
H    -1.203774  1.205133  0.129973
H    -0.029386  -0.002479  -0.343166
H    -0.687158  0.842918  2.411722
C    -1.448107  -1.200292  1.981795
C    -1.738551  -1.635926  3.410003
O    -2.784051  -2.366433  3.467418
N    -0.984962  -1.293173  4.431645
H    -1.099781  -2.084269  1.424654
H    -2.413192  -0.911942  1.547245
H    -0.110600  -0.773978  4.295543
H    -1.194200  -1.607359  5.376718
O    1.423024  -0.273637  3.193329
H    2.359751  -0.556934  3.286386
Cd    -4.018136  -3.398612  4.959817
