18
Energy: -167521.766943 eV PBE+vdW (tier 2 basis)
N    -0.281488  1.034601  0.831158
C    -0.572304  -0.260936  1.325326
C    0.495983  -0.922629  2.242631
O    0.294702  -1.944637  2.943400
H    -0.302089  1.793266  1.508483
H    -2.868058  -0.925294  -1.617715
H    -1.451313  -0.167889  1.993302
C    -0.924739  -1.247645  0.146146
C    -2.351538  -1.753090  0.182078
O    -2.810374  -2.453425  1.158313
N    -3.160597  -1.484262  -0.820142
H    -0.272583  -2.136532  0.134851
H    -0.728239  -0.715951  -0.791377
H    0.501844  1.122073  0.186628
H    -4.116580  -1.842440  -0.818661
O    1.641124  -0.311998  2.256815
H    2.291508  -0.738560  2.862400
Cd    -1.611258  -3.014655  2.817362
