24
Energy: -17146.2937003 eV PBE+vdW (tier 2 basis)
N    1.312779  1.115994  0.375130
C    0.362891  0.763349  1.441082
C    0.957055  -0.406784  2.229224
O    1.460068  -0.299531  3.328184
H    0.912643  1.853160  -0.206991
H    2.172899  1.491064  0.776886
H    0.228575  1.559360  2.195391
C    -1.008306  0.433779  0.821806
C    -2.060055  0.064764  1.839022
C    -2.435987  -1.270073  2.042810
C    -2.675480  1.043420  2.630171
C    -3.385410  -1.623591  2.997982
C    -3.625949  0.707615  3.592054
C    -3.982938  -0.631814  3.780418
O    -4.912026  -1.027839  4.708221
H    -0.875528  -0.373415  0.089782
H    -1.330347  1.326360  0.260124
H    -1.971751  -2.050935  1.439642
H    -2.413213  2.094155  2.492752
H    -3.674244  -2.663050  3.147957
H    -4.094160  1.488533  4.195409
H    -5.235570  -0.243670  5.179295
O    0.894364  -1.587917  1.560788
H    1.321691  -2.243933  2.144860
