24
Energy: -17146.4380765 eV PBE+vdW (tier 2 basis)
N    0.691379  0.197946  4.019601
C    0.776334  -0.545120  2.771644
C    0.821828  0.260082  1.463882
O    1.050461  -0.220061  0.371798
H    1.451875  0.872912  4.090861
H    -0.177329  0.734071  4.051574
H    1.720451  -1.113277  2.774552
C    -0.367528  -1.592920  2.678630
C    -1.750227  -0.988918  2.666389
C    -2.456167  -0.766740  3.858943
C    -2.363468  -0.606393  1.465067
C    -3.717027  -0.175602  3.862902
C    -3.625140  -0.014371  1.452280
C    -4.305597  0.206888  2.654194
O    -5.549215  0.782785  2.707365
H    -0.253457  -2.256247  3.546173
H    -0.204193  -2.191429  1.773090
H    -2.008186  -1.068926  4.806748
H    -1.848985  -0.779585  0.518747
H    -4.259771  -0.011290  4.792907
H    -4.085988  0.269467  0.503342
H    -5.836348  0.987464  1.803352
O    0.577673  1.587920  1.641550
H    0.618624  1.982343  0.748409
