24
Energy: -17146.3126119 eV PBE+vdW (tier 2 basis)
N    1.250788  1.199958  0.606311
C    0.297821  0.711678  1.620405
C    1.015471  -0.406096  2.380084
O    0.834734  -1.597190  2.269478
H    2.068827  1.608954  1.059248
H    0.811232  1.941265  0.059318
H    0.024302  1.480050  2.369934
C    -0.984393  0.207705  0.940877
C    -2.130951  -0.020466  1.897000
C    -2.416800  -1.293077  2.411610
C    -2.935695  1.047559  2.314118
C    -3.462033  -1.497109  3.308542
C    -3.985235  0.861210  3.212540
C    -4.250822  -0.417001  3.714202
O    -5.269751  -0.669320  4.598175
H    -0.748097  -0.708927  0.385219
H    -1.277189  0.966875  0.198432
H    -1.798861  -2.138342  2.109799
H    -2.746943  2.050041  1.924389
H    -3.679099  -2.489246  3.702318
H    -4.602870  1.708824  3.518204
H    -5.730034  0.163576  4.787529
O    1.958129  0.120866  3.216780
H    2.408469  -0.641787  3.629489
