24
Energy: -17146.4022965 eV PBE+vdW (tier 2 basis)
N    0.268048  1.375000  2.792815
C    0.374339  -0.037798  2.448309
C    1.730739  -0.365908  1.846922
O    2.321492  -1.414226  1.996625
H    -0.666135  1.566883  3.158049
H    0.394791  1.957518  1.964074
H    0.318574  -0.621135  3.378198
C    -0.722770  -0.596494  1.476833
C    -2.106082  -0.451885  2.049967
C    -2.607161  -1.387835  2.965115
C    -2.916123  0.648839  1.734094
C    -3.866073  -1.236304  3.541729
C    -4.177218  0.816704  2.302072
C    -4.656615  -0.129164  3.212168
O    -5.903734  0.075335  3.742871
H    -0.499372  -1.654826  1.275997
H    -0.647003  -0.056748  0.520993
H    -2.003518  -2.257479  3.230885
H    -2.556064  1.388173  1.016863
H    -4.238224  -1.982894  4.246864
H    -4.802272  1.671134  2.045985
H    -6.108698  -0.653519  4.349841
O    2.195629  0.632607  1.042404
H    3.043447  0.310023  0.680327
