24
Energy: -17146.3869648 eV PBE+vdW (tier 2 basis)
N    -0.232873  1.068076  1.092793
C    0.270132  0.127481  2.093110
C    1.726488  -0.242377  1.832817
O    2.250511  -1.293715  2.132631
H    0.357102  1.897596  1.045052
H    -1.171358  1.369291  1.358256
H    0.289674  0.552210  3.123141
C    -0.610655  -1.136144  2.136676
C    -2.021074  -0.836389  2.579511
C    -3.056922  -0.676557  1.650895
C    -2.333914  -0.675932  3.938618
C    -4.355703  -0.366283  2.056432
C    -3.622821  -0.365710  4.360568
C    -4.642182  -0.208322  3.415292
O    -5.896516  0.093533  3.880905
H    -0.136714  -1.859473  2.812569
H    -0.615445  -1.580998  1.131877
H    -2.844685  -0.798437  0.587857
H    -1.550425  -0.805339  4.687816
H    -5.148029  -0.251700  1.313210
H    -3.858350  -0.250332  5.417800
H    -6.501016  0.162820  3.125007
O    2.422200  0.787014  1.270461
H    3.341572  0.468689  1.182707
