24
Energy: -17146.4065473 eV PBE+vdW (tier 2 basis)
N    2.779751  -0.217584  1.078069
C    1.775619  -0.731561  2.006800
C    0.474416  -0.882795  1.230881
O    -0.006588  -0.015998  0.528950
H    3.620090  0.062272  1.584401
H    2.412418  0.612505  0.608129
H    2.085602  -1.727256  2.354029
C    1.513801  0.172492  3.253645
C    0.477826  -0.360844  4.208391
C    -0.850712  0.077301  4.149282
C    0.799378  -1.348524  5.151008
C    -1.825502  -0.447769  4.996788
C    -0.160584  -1.883625  6.004097
C    -1.482271  -1.432877  5.927717
O    -2.391877  -1.987545  6.791691
H    1.220324  1.167296  2.887366
H    2.481278  0.287226  3.766615
H    -1.131496  0.843590  3.424902
H    1.828034  -1.706838  5.223753
H    -2.854685  -0.086549  4.936814
H    0.097733  -2.646610  6.737236
H    -3.258800  -1.581244  6.633850
O    -0.115174  -2.085474  1.435102
H    -0.959581  -2.061591  0.942484
