24
Energy: -17146.4093672 eV PBE+vdW (tier 2 basis)
N    0.601004  -0.179180  -0.033712
C    -0.106284  0.139064  1.195458
C    0.902782  0.674297  2.198007
O    2.099562  0.492186  2.155917
H    0.048393  -0.799407  -0.623294
H    1.483426  -0.644700  0.184073
H    -0.827218  0.949648  0.999587
C    -0.929955  -1.027796  1.848368
C    -0.104407  -2.192340  2.324220
C    0.372211  -2.248273  3.643002
C    0.252156  -3.236072  1.460862
C    1.177592  -3.291905  4.086378
C    1.060699  -4.289211  1.887244
C    1.530020  -4.317621  3.203799
O    2.325098  -5.324653  3.687295
H    -1.653086  -1.357711  1.086881
H    -1.516048  -0.609450  2.679083
H    0.102753  -1.454947  4.342214
H    -0.117234  -3.237756  0.434339
H    1.540050  -3.327958  5.112786
H    1.321183  -5.093953  1.196161
H    2.494543  -5.958609  2.972514
O    0.295112  1.368686  3.202288
H    1.011647  1.634663  3.810531
