24
Energy: -17146.3218274 eV PBE+vdW (tier 2 basis)
N    2.814062  -2.075411  2.100993
C    1.537296  -1.977272  1.397631
C    0.968393  -0.564886  1.381148
O    -0.088455  -0.266869  0.864592
H    3.328474  -2.895291  1.782491
H    3.395742  -1.256475  1.935538
H    1.609846  -2.236583  0.321674
C    0.488825  -2.950632  2.010240
C    0.036286  -2.598073  3.404729
C    0.810937  -2.907595  4.533168
C    -1.175223  -1.925056  3.609015
C    0.398902  -2.560233  5.816102
C    -1.601604  -1.569574  4.888281
C    -0.812727  -1.886751  5.997595
O    -1.177338  -1.568344  7.282551
H    0.942614  -3.953247  1.994377
H    -0.374873  -2.979900  1.333054
H    1.762237  -3.421751  4.402324
H    -1.795871  -1.666715  2.750368
H    1.004611  -2.805239  6.687697
H    -2.551746  -1.047395  5.022687
H    -2.033921  -1.113304  7.256367
O    1.774008  0.351236  1.982894
H    1.306525  1.205358  1.902483
