24
Energy: -17146.4207658 eV PBE+vdW (tier 2 basis)
N    -0.577642  1.633913  1.411274
C    0.117148  0.685682  2.303558
C    1.623641  0.702266  1.945222
O    2.406693  -0.165239  2.263149
H    -1.401723  2.030237  1.860265
H    -0.892001  1.168586  0.558100
H    0.066734  1.115228  3.317017
C    -0.462649  -0.755263  2.361640
C    -0.526299  -1.346540  3.751174
C    -1.740672  -1.383984  4.450555
C    0.616016  -1.844783  4.392505
C    -1.826417  -1.894769  5.743742
C    0.545269  -2.359471  5.685283
C    -0.676303  -2.385717  6.367002
O    -0.805014  -2.881065  7.639717
H    0.127018  -1.403477  1.697989
H    -1.483405  -0.716198  1.954868
H    -2.648297  -1.012285  3.970431
H    1.573845  -1.811986  3.873775
H    -2.775315  -1.924812  6.277691
H    1.447187  -2.743702  6.167551
H    0.064481  -3.187910  7.942207
O    1.990278  1.804002  1.263355
H    1.125428  2.275288  1.099931
