24
Energy: -17146.4483158 eV PBE+vdW (tier 2 basis)
N    0.312440  -1.693374  1.406510
C    0.022542  -0.269221  1.392067
C    1.237783  0.477083  1.911463
O    2.019774  0.048869  2.734335
H    -0.551559  -2.231186  1.332876
H    0.771753  -1.941145  2.284848
H    -0.158129  0.053134  0.355021
C    -1.211449  0.187431  2.247850
C    -2.479551  -0.499219  1.818832
C    -3.204611  -0.048611  0.707130
C    -2.948298  -1.642463  2.482857
C    -4.351616  -0.708880  0.273215
C    -4.093071  -2.315886  2.061776
C    -4.799474  -1.849498  0.950116
O    -5.920869  -2.541873  0.573861
H    -1.316843  1.278572  2.154854
H    -0.996918  -0.035728  3.303478
H    -2.869533  0.839941  0.169030
H    -2.410309  -2.008887  3.358636
H    -4.903744  -0.335283  -0.592062
H    -4.452944  -3.199582  2.586992
H    -6.308849  -2.110350  -0.203881
O    1.326955  1.730994  1.388032
H    2.095522  2.149163  1.823161
