24
Energy: -17146.5944206 eV PBE+vdW (tier 2 basis)
N    1.140579  -0.355672  1.111077
C    -0.043149  0.487196  1.350814
C    0.393892  1.764285  2.114122
O    1.727307  1.904210  2.184928
H    1.192716  -1.101201  1.810010
H    1.118800  -0.791942  0.191824
H    -0.400340  0.857459  0.376956
C    -1.226128  -0.218146  2.057362
C    -0.816642  -0.952017  3.310448
C    -0.646033  -0.277656  4.529159
C    -0.548218  -2.329262  3.283648
C    -0.218151  -0.950651  5.670727
C    -0.118857  -3.016366  4.417601
C    0.051366  -2.323242  5.618852
O    0.474690  -3.037143  6.708862
H    -1.679249  -0.924693  1.347184
H    -1.977672  0.550057  2.282926
H    -0.851187  0.791515  4.585905
H    -0.696646  -2.885196  2.355467
H    -0.095508  -0.405545  6.609297
H    0.079561  -4.086903  4.388406
H    0.545633  -2.436201  7.467620
O    -0.389209  2.568371  2.572231
H    2.063444  1.076741  1.729575
