24
Energy: -17146.3206252 eV PBE+vdW (tier 2 basis)
N    2.298594  -1.026974  0.778859
C    1.151943  -0.939635  1.702184
C    0.378146  0.320240  1.308225
O    0.358223  1.378958  1.893685
H    2.857608  -1.848578  1.012202
H    1.970571  -1.152382  -0.179435
H    0.446207  -1.787911  1.605097
C    1.647337  -0.874387  3.154613
C    0.559372  -1.088861  4.179673
C    0.132956  -2.383820  4.511058
C    -0.069489  -0.012563  4.816485
C    -0.881515  -2.606915  5.437387
C    -1.086309  -0.218183  5.748359
C    -1.497186  -1.517353  6.060864
O    -2.490520  -1.783998  6.969406
H    2.148643  0.089657  3.309785
H    2.413704  -1.657086  3.270584
H    0.611735  -3.244121  4.038466
H    0.233913  1.004468  4.569778
H    -1.202070  -3.616106  5.692781
H    -1.561790  0.636874  6.234445
H    -2.820980  -0.942707  7.322390
O    -0.297577  0.113267  0.139195
H    -0.725513  0.964116  -0.079086
