24
Energy: -17146.4058271 eV PBE+vdW (tier 2 basis)
N    -0.168939  0.719569  0.270023
C    -0.094444  0.332680  1.676683
C    1.371861  0.375301  2.083645
O    2.272295  -0.131371  1.445158
H    -1.099115  0.526760  -0.102020
H    0.499633  0.164815  -0.268586
H    -0.640050  1.070613  2.281818
C    -0.662614  -1.088149  1.994257
C    -0.593312  -1.482420  3.446406
C    0.466189  -2.260959  3.934478
C    -1.555573  -1.041273  4.363139
C    0.569248  -2.589461  5.283183
C    -1.467832  -1.360474  5.716871
C    -0.400882  -2.136350  6.181918
O    -0.258298  -2.487033  7.500313
H    -0.113500  -1.812221  1.374492
H    -1.707911  -1.091186  1.648340
H    1.230119  -2.617377  3.241365
H    -2.395817  -0.437285  4.015510
H    1.392089  -3.199486  5.653669
H    -2.232596  -1.009258  6.413283
H    -0.996262  -2.109424  8.004625
O    1.564609  1.012436  3.263796
H    2.518596  0.932967  3.463542
