28
Energy: -38234.8977948 eV PBE+vdW (tier 2 basis)
C    -0.541169  1.388534  0.964418
C    0.028916  0.205751  1.719866
O    1.191358  0.149018  2.094247
H    -0.794463  1.112880  -0.069638
H    -1.450321  1.785776  1.436483
H    0.222663  2.169443  0.936958
N    -0.838038  -0.841892  2.004875
C    -2.212023  -1.017481  1.571569
C    -3.270866  -0.577780  2.616242
O    -4.479007  -0.721907  2.381967
H    -0.372805  -1.625688  2.457985
H    -2.382555  -0.371370  0.697228
C    -2.444989  -2.484956  1.145625
C    -3.764922  -2.675737  0.394730
C    -4.287458  -4.059817  0.324186
O    -3.950559  -4.966889  1.188905
O    -5.159311  -4.381864  -0.583915
H    -1.599285  -2.790208  0.513395
H    -2.430909  -3.127080  2.038523
H    -3.749552  -2.257489  -0.620761
H    -4.539263  -2.090319  0.944783
N    -2.781466  -0.034499  3.748731
C    -3.620720  0.469549  4.821890
H    -1.770628  0.029483  3.824810
H    -4.665576  0.366550  4.512862
H    -3.404195  1.527649  5.016608
H    -3.460291  -0.100881  5.746344
Ca    -5.340812  -6.305146  0.286071
