28
Energy: -38236.6564497 eV PBE+vdW (tier 2 basis)
C    -2.562864  -0.859810  -0.670458
C    -1.436979  -0.364219  0.197260
O    -0.246643  -0.495049  -0.121785
H    -2.385246  -1.911982  -0.921788
H    -2.548324  -0.295054  -1.612040
H    -3.552452  -0.755716  -0.211208
N    -1.788211  0.249673  1.368209
C    -0.813864  0.958367  2.204028
C    -0.052381  -0.070975  3.082380
O    -0.171758  -0.160875  4.343256
H    -2.769297  0.317230  1.617249
H    -0.058440  1.366280  1.512595
C    -1.519266  2.122479  2.916164
C    -0.613109  3.242992  3.481774
C    0.031296  2.781096  4.761895
O    1.255558  2.402994  4.772949
O    -0.715515  2.585452  5.788970
H    -2.175261  1.749872  3.716474
H    -2.167792  2.583677  2.158433
H    -1.247536  4.110911  3.702180
H    0.154074  3.541775  2.757612
N    0.732563  -0.883165  2.393404
C    1.498680  -1.969650  2.982998
H    0.674297  -0.780655  1.358377
H    2.373816  -1.584022  3.525136
H    0.878708  -2.553637  3.674252
H    1.852214  -2.621400  2.179375
Ca    0.534731  0.835412  6.149309
