28
Energy: -38236.4895038 eV PBE+vdW (tier 2 basis)
C    -0.107712  0.962324  0.624059
C    -0.335632  -0.089014  1.658884
O    0.648751  -0.730746  2.154204
H    0.965902  1.125121  0.506622
H    -0.529389  0.635814  -0.337369
H    -0.610142  1.905077  0.875721
N    -1.573379  -0.403687  2.078176
C    -2.789499  0.441259  2.103622
C    -3.166172  1.001664  0.701821
O    -3.080413  2.198403  0.452629
H    -1.576128  -1.151818  2.772029
H    -3.590710  -0.247769  2.411377
C    -2.681641  1.572791  3.139334
C    -2.379328  1.109744  4.581833
C    -0.991553  0.531946  4.740857
O    -0.837504  -0.721669  4.994234
O    0.034918  1.273495  4.536912
H    -3.638593  2.110673  3.137223
H    -1.929556  2.302351  2.812770
H    -3.112174  0.371097  4.930960
H    -2.446137  1.990287  5.236117
N    -3.572773  0.059094  -0.186081
C    -3.988402  0.380480  -1.544740
H    -3.661159  -0.900804  0.128569
H    -3.473036  -0.265698  -2.265926
H    -5.072947  0.258067  -1.665725
H    -3.728477  1.425328  -1.739226
Ca    1.245816  -0.549682  4.253743
