28
Energy: -38234.1016322 eV PBE+vdW (tier 2 basis)
C    0.488978  -0.603808  0.435326
C    0.362399  0.139457  1.748460
O    1.339878  0.514268  2.381012
H    -0.046773  -0.095585  -0.377818
H    0.100925  -1.627653  0.523286
H    1.550414  -0.651432  0.179817
N    -0.904446  0.399794  2.241165
C    -2.227998  0.046316  1.746938
C    -2.401912  -1.498140  1.596126
O    -2.310619  -2.159151  2.622835
H    -0.864348  0.799937  3.173959
H    -2.889348  0.228521  2.607175
C    -2.706600  1.013837  0.639108
C    -4.250771  1.003613  0.500546
C    -4.674543  1.977694  -0.544680
O    -5.004990  3.188920  -0.227303
O    -4.680599  1.650288  -1.799617
H    -2.232234  0.806386  -0.327230
H    -2.385057  2.018972  0.944993
H    -4.610232  0.004315  0.222492
H    -4.706308  1.294438  1.455719
N    -2.720931  -2.116235  0.410564
C    -2.636607  -1.705534  -0.985780
H    -2.828046  -3.115197  0.569202
H    -3.440167  -1.017182  -1.283300
H    -1.669019  -1.253385  -1.235933
H    -2.741906  -2.605565  -1.600193
Ca    -5.322122  3.629369  -2.287299
