28
Energy: -38235.767438 eV PBE+vdW (tier 2 basis)
C    0.039988  0.541167  -0.350909
C    -0.085921  -0.350707  0.863560
O    0.770989  -1.179805  1.133786
H    0.030525  1.604482  -0.083243
H    -0.759279  0.364213  -1.082658
H    0.995977  0.302277  -0.824182
N    -1.167687  -0.244266  1.742661
C    -2.431955  0.484191  1.837667
C    -3.608867  -0.517223  1.838964
O    -4.390903  -0.540243  2.845414
H    -1.003509  -0.874122  2.526317
H    -2.474217  0.891896  2.857278
C    -2.594973  1.708541  0.906167
C    -4.000568  2.349683  0.840829
C    -4.772771  2.332950  2.139004
O    -5.999776  1.961612  2.127835
O    -4.167939  2.517747  3.255896
H    -2.321518  1.460153  -0.123671
H    -1.861648  2.446052  1.256119
H    -3.887927  3.394977  0.516791
H    -4.629847  1.858446  0.088827
N    -3.801708  -1.394670  0.858705
C    -3.032611  -1.585416  -0.368969
H    -4.566918  -2.044128  1.029640
H    -3.636598  -2.186728  -1.054557
H    -2.824983  -0.627303  -0.853985
H    -2.088512  -2.107701  -0.170766
Ca    -5.525789  0.944615  4.009895
