28
Energy: -38235.0528291 eV PBE+vdW (tier 2 basis)
C    -0.640247  -1.126350  0.260071
C    -0.445358  -0.833585  1.730769
O    0.674669  -0.806684  2.249690
H    -1.690914  -1.105060  -0.055464
H    -0.213965  -2.111034  0.032129
H    -0.077643  -0.386550  -0.322713
N    -1.581303  -0.596073  2.451876
C    -1.520640  -0.213978  3.859674
C    -1.386618  -1.474273  4.762027
O    -2.343871  -1.970790  5.379225
H    -2.496254  -0.662229  2.016405
H    -0.582861  0.351013  3.968253
C    -2.665584  0.726779  4.263689
C    -4.043896  0.103640  4.557861
C    -4.954503  -0.233820  3.453924
O    -6.233939  -0.318552  3.673316
O    -4.541513  -0.526337  2.249027
H    -2.736559  1.527812  3.513927
H    -2.356490  1.212557  5.198753
H    -4.613393  0.693474  5.286247
H    -3.813078  -0.874297  5.061138
N    -0.136824  -1.972833  4.787484
C    0.215137  -3.194378  5.491566
H    0.526064  -1.562373  4.122242
H    0.214880  -4.063165  4.817040
H    -0.516703  -3.368231  6.286234
H    1.213351  -3.090073  5.931274
Ca    -6.555334  -1.026574  1.717478
