28
Energy: -38236.5321827 eV PBE+vdW (tier 2 basis)
C    -0.175688  1.508840  0.549773
C    -0.303145  0.707215  1.820489
O    0.065866  1.104203  2.921665
H    -0.274443  0.904662  -0.359843
H    0.790436  2.024513  0.545967
H    -0.958288  2.280293  0.542074
N    -0.862994  -0.554798  1.701391
C    -1.253065  -1.250159  2.920703
C    -0.014359  -1.569885  3.771626
O    -0.058235  -1.498352  5.034658
H    -1.328259  -0.810030  0.835709
H    -1.844501  -0.571408  3.550576
C    -2.136522  -2.467260  2.544418
C    -2.403189  -3.533755  3.625485
C    -2.588258  -2.980529  5.020833
O    -3.122011  -1.825827  5.191483
O    -2.041230  -3.585835  6.007592
H    -1.680834  -2.984111  1.686237
H    -3.090371  -2.047268  2.197047
H    -3.305366  -4.099127  3.348404
H    -1.587681  -4.265160  3.679858
N    1.084120  -1.960076  3.139614
C    2.350829  -2.246390  3.800675
H    1.060487  -1.889258  2.125464
H    3.012333  -2.749993  3.090336
H    2.828043  -1.318933  4.145064
H    2.183202  -2.902125  4.661489
Ca    -1.503875  -1.561449  6.677215
