28
Energy: -38236.3784353 eV PBE+vdW (tier 2 basis)
C    -0.555780  1.397224  0.833749
C    -0.628766  0.448110  1.981364
O    0.213762  0.531312  2.940723
H    0.469608  1.357845  0.440655
H    -0.728310  2.422475  1.184565
H    -1.260202  1.163493  0.030891
N    -1.541854  -0.527501  2.036739
C    -2.900036  -0.648038  1.468129
C    -3.588915  0.688671  1.083356
O    -4.142204  0.766939  -0.007237
H    -1.359450  -1.203702  2.780200
H    -2.858703  -1.205141  0.522775
C    -3.721131  -1.483666  2.480178
C    -3.962266  -0.873268  3.889050
C    -2.701650  -0.398767  4.580012
O    -1.805899  -1.241608  4.950036
O    -2.480532  0.862800  4.716663
H    -3.225342  -2.460379  2.589546
H    -4.700216  -1.685134  2.027585
H    -4.410512  -1.658654  4.513006
H    -4.669053  -0.037921  3.837228
N    -3.560106  1.703921  1.985446
C    -4.232651  2.965863  1.698687
H    -3.196614  1.555550  2.925635
H    -4.020286  3.668790  2.510122
H    -5.319215  2.830951  1.612073
H    -3.871732  3.384162  0.751001
Ca    -0.316010  0.416056  5.064788
