28
Energy: -38236.0494953 eV PBE+vdW (tier 2 basis)
C    -0.325309  -1.127457  -0.313794
C    -0.083160  -0.471198  1.005187
O    1.084145  -0.022930  1.283615
H    -0.439518  -2.209010  -0.158289
H    0.525171  -0.928158  -0.969822
H    -1.245267  -0.777623  -0.794814
N    -1.035009  -0.322449  1.934248
C    -2.508832  -0.296917  1.852254
C    -3.025474  -1.494170  1.005541
O    -2.421072  -2.558001  1.113987
H    -0.674325  0.117386  2.779811
H    -2.846208  -0.590162  2.860567
C    -2.971434  1.169352  1.667827
C    -2.448333  1.925530  0.437205
C    -0.985668  2.318591  0.526943
O    -0.234152  2.190675  -0.503816
O    -0.488279  2.708652  1.643904
H    -2.649222  1.722704  2.562216
H    -4.065592  1.200123  1.688966
H    -3.016229  2.864936  0.343255
H    -2.594834  1.377267  -0.501906
N    -4.135487  -1.406279  0.220308
C    -5.159153  -0.380917  0.039396
H    -4.357979  -2.322850  -0.161094
H    -5.665742  -0.121656  0.979111
H    -5.914373  -0.790216  -0.638604
H    -4.763800  0.528756  -0.427517
Ca    1.497655  2.073940  0.873484
