28
Energy: -38236.7600526 eV PBE+vdW (tier 2 basis)
C    -0.125514  -0.904957  0.240865
C    -0.333512  -0.184350  1.546968
O    0.209596  -0.559610  2.596668
H    0.947329  -1.070765  0.091216
H    -0.540148  -0.379741  -0.626905
H    -0.599265  -1.893500  0.312744
N    -1.155394  0.906844  1.515266
C    -1.695132  1.618704  2.678970
C    -0.655881  2.412085  3.494645
O    -0.942414  3.586199  3.902617
H    -1.543798  1.170332  0.617220
H    -2.350175  2.388964  2.252333
C    -2.558915  0.711031  3.621497
C    -4.000896  1.230055  3.841840
C    -3.934657  2.646518  4.351497
O    -4.084065  3.619492  3.524286
O    -3.536754  2.873045  5.549183
H    -2.065661  0.595087  4.594494
H    -2.610236  -0.290081  3.178211
H    -4.574259  1.206799  2.907326
H    -4.495279  0.589754  4.582887
N    0.487454  1.828350  3.789562
C    1.533701  2.449393  4.589086
H    0.572020  0.836534  3.466506
H    1.693900  3.485538  4.270814
H    1.270013  2.443247  5.655892
H    2.458131  1.881668  4.451453
Ca    -2.604189  4.698363  4.749857
