28
Energy: -38236.3995633 eV PBE+vdW (tier 2 basis)
C    -0.219589  1.043649  0.267001
C    -0.479407  0.368179  1.572369
O    0.358745  -0.470367  2.042390
H    0.792370  0.804028  -0.066885
H    -0.938560  0.687736  -0.485060
H    -0.354514  2.130846  0.329106
N    -1.601550  0.600923  2.274572
C    -2.462981  1.805144  2.287294
C    -3.010225  2.170604  0.881249
O    -2.611623  3.169032  0.291093
H    -1.650982  0.050065  3.131826
H    -3.318019  1.516608  2.916553
C    -1.755595  3.009573  2.931296
C    -1.239994  2.767298  4.367308
C    -0.096681  1.780429  4.429069
O    -0.262944  0.631268  4.986943
O    1.013842  2.054418  3.848725
H    -2.474907  3.838630  2.953023
H    -0.933479  3.345674  2.286999
H    -2.042036  2.421292  5.031829
H    -0.868022  3.726306  4.754445
N    -3.933996  1.324165  0.352071
C    -4.583615  0.183186  0.985290
H    -4.289764  1.633437  -0.548509
H    -5.200338  0.478689  1.847114
H    -5.244676  -0.285317  0.250104
H    -3.855992  -0.574172  1.304405
Ca    1.508741  -0.095831  3.868639
