28
Energy: -38235.992613 eV PBE+vdW (tier 2 basis)
C    -0.558456  1.794919  -0.594432
C    0.208051  0.727340  0.159936
O    1.143246  0.118664  -0.335125
H    0.062695  2.112316  -1.436211
H    -0.817577  2.668563  0.014719
H    -1.489407  1.375025  -1.002588
N    -0.197730  0.398135  1.448665
C    -1.217812  0.998966  2.304359
C    -2.586318  0.960968  1.593415
O    -3.292523  1.992413  1.384691
H    0.410452  -0.297727  1.872742
H    -1.336537  0.295982  3.147534
C    -0.757380  2.346976  2.908276
C    -1.390454  2.769969  4.256795
C    -2.778040  3.295320  4.017508
O    -3.801746  2.555465  4.239631
O    -2.912925  4.411448  3.393895
H    -0.869412  3.162273  2.181874
H    0.320920  2.225833  3.072303
H    -0.775830  3.574050  4.680824
H    -1.418126  1.935029  4.967891
N    -3.040065  -0.222832  1.172764
C    -2.440730  -1.549006  1.310139
H    -3.921394  -0.170353  0.667907
H    -1.648027  -1.710431  0.569804
H    -3.230951  -2.291284  1.162002
H    -2.027417  -1.689887  2.315196
Ca    -4.585730  3.459669  2.389725
