28
Energy: -38236.492703 eV PBE+vdW (tier 2 basis)
C    -0.933062  0.275316  1.602488
C    -2.326734  0.498910  2.077187
O    -2.619287  1.576779  2.699649
H    -0.650184  1.109897  0.947098
H    -0.272820  0.316990  2.480241
H    -0.791072  -0.681124  1.089965
N    -3.315836  -0.388875  1.881258
C    -3.488228  -1.440097  0.846187
C    -2.542301  -2.651223  1.052540
O    -1.379780  -2.629230  0.655414
H    -4.193251  -0.077947  2.295011
H    -4.522556  -1.779043  1.001441
C    -3.372604  -0.884268  -0.583859
C    -4.416405  0.196218  -0.944756
C    -4.256964  1.478755  -0.159676
O    -5.136542  1.812551  0.716711
O    -3.202191  2.193652  -0.316170
H    -3.502771  -1.729745  -1.273668
H    -2.355510  -0.510410  -0.756451
H    -5.438445  -0.177126  -0.802169
H    -4.288763  0.442574  -2.008190
N    -3.112980  -3.708954  1.678883
C    -2.392798  -4.942912  1.961597
H    -4.083022  -3.643907  1.964459
H    -2.300703  -5.102147  3.043828
H    -1.393447  -4.856743  1.525076
H    -2.910177  -5.800804  1.514711
Ca    -3.634492  3.174695  1.618621
