28
Energy: -38236.8183554 eV PBE+vdW (tier 2 basis)
C    0.197408  -0.678771  0.251792
C    -0.016774  -0.162920  1.643287
O    0.987424  0.080248  2.385085
H    0.753240  0.071212  -0.326698
H    0.818024  -1.582595  0.298457
H    -0.737795  -0.907993  -0.268620
N    -1.270231  0.028250  2.045501
C    -1.731741  0.346842  3.393443
C    -2.883048  -0.661221  3.648211
O    -3.480079  -1.145331  2.685273
H    -2.035348  -0.351753  1.474432
H    -0.897724  0.193323  4.088678
C    -2.293779  1.785098  3.551510
C    -1.428996  2.930165  3.004274
C    0.025875  2.843402  3.392331
O    0.364904  2.322458  4.517031
O    0.923814  3.161711  2.534525
H    -2.474583  1.936076  4.623978
H    -3.274236  1.835494  3.056643
H    -1.829029  3.885355  3.378550
H    -1.472942  2.988331  1.910121
N    -3.178277  -0.902877  4.942135
C    -4.285967  -1.752576  5.361742
H    -2.612558  -0.460699  5.658072
H    -3.921427  -2.588835  5.971111
H    -5.018729  -1.176742  5.941219
H    -4.768370  -2.146674  4.462763
Ca    2.141944  1.579021  3.434151
