28
Energy: -38236.4026439 eV PBE+vdW (tier 2 basis)
C    -0.234623  1.110641  -0.106317
C    -0.087042  0.462827  1.253729
O    0.969475  0.391788  1.854730
H    0.721046  1.572960  -0.365214
H    -1.021352  1.878266  -0.120494
H    -0.480181  0.363497  -0.875153
N    -1.247118  -0.057667  1.841741
C    -2.541844  -0.239054  1.211942
C    -3.463099  0.980849  1.415941
O    -4.522668  1.120805  0.731975
H    -1.044977  -0.606123  2.675140
H    -2.412535  -0.309100  0.120853
C    -3.229036  -1.551659  1.706074
C    -3.618836  -2.536140  0.577255
C    -4.633234  -1.848122  -0.296396
O    -5.839212  -1.722920  0.122487
O    -4.240778  -1.206814  -1.338291
H    -4.124143  -1.320240  2.299005
H    -2.531671  -2.067084  2.378885
H    -2.740454  -2.821085  -0.013988
H    -4.061590  -3.432943  1.026998
N    -3.084962  1.862844  2.327116
C    -3.798816  3.077081  2.690938
H    -2.186871  1.653058  2.767053
H    -3.989396  3.087102  3.770632
H    -3.204079  3.960700  2.427374
H    -4.750597  3.106830  2.154583
Ca    -5.805073  0.252995  -0.815842
