28
Energy: -38236.3956222 eV PBE+vdW (tier 2 basis)
C    0.582214  -0.051110  -0.139664
C    0.362966  0.002052  1.343410
O    1.356055  0.027719  2.127242
H    1.164455  -0.950440  -0.379837
H    1.178465  0.816972  -0.448541
H    -0.349449  -0.067261  -0.715153
N    -0.897954  0.016029  1.788781
C    -1.294656  -0.005856  3.202162
C    -2.414674  -1.032648  3.496306
O    -2.229608  -1.855775  4.383376
H    -1.624626  0.011523  1.079971
H    -0.441344  -0.433671  3.738203
C    -1.607442  1.405132  3.785596
C    -0.960398  1.630437  5.171541
C    0.533940  1.491012  5.023641
O    1.120183  0.429326  5.443746
O    1.181849  2.350443  4.321644
H    -2.690802  1.552925  3.880686
H    -1.233422  2.169098  3.091082
H    -1.325637  0.900998  5.903705
H    -1.204454  2.643324  5.516866
N    -3.590048  -0.965526  2.803372
C    -4.005366  -0.058625  1.745885
H    -4.247025  -1.689654  3.082311
H    -3.579013  0.943124  1.880473
H    -5.094196  0.057984  1.780527
H    -3.751179  -0.432364  0.738453
Ca    2.556992  0.716070  3.810222
