28
Energy: -38236.3661867 eV PBE+vdW (tier 2 basis)
C    0.361859  -0.182815  -0.012396
C    0.424901  -0.353657  1.484756
O    1.395096  -0.830070  2.072941
H    1.307747  0.244210  -0.363828
H    0.262520  -1.175198  -0.472521
H    -0.471471  0.444410  -0.349621
N    -0.669902  0.068523  2.198232
C    -0.794181  -0.230780  3.623665
C    0.563591  0.027455  4.314745
O    1.139219  -0.828123  5.046394
H    -1.494528  0.395392  1.706702
H    -1.480522  0.523934  4.046605
C    -1.428928  -1.626514  3.825679
C    -2.168376  -1.892064  5.159453
C    -1.176482  -2.217042  6.243891
O    -0.492267  -3.299952  6.138369
O    -0.875059  -1.348028  7.134473
H    -0.677799  -2.407150  3.648081
H    -2.170353  -1.722197  3.021266
H    -2.821739  -2.761903  5.013247
H    -2.787422  -1.036643  5.457570
N    1.076700  1.263106  4.260250
C    0.614126  2.431274  3.522377
H    1.987199  1.339600  4.705684
H    -0.477905  2.503862  3.546982
H    0.949214  2.410042  2.476897
H    1.022912  3.323372  4.007872
Ca    1.186218  -2.085961  6.807372
