28
Energy: -38236.9189758 eV PBE+vdW (tier 2 basis)
C    -1.033771  -0.114059  -0.098722
C    -0.362134  0.201852  1.211374
O    0.862185  0.436298  1.235356
H    -0.882200  0.728714  -0.784972
H    -2.106660  -0.316995  -0.013935
H    -0.536847  -0.986173  -0.542308
N    -1.165971  0.209437  2.301516
C    -0.900425  0.394332  3.739986
C    -0.171598  1.714589  4.073036
O    0.588792  2.314568  3.273059
H    -2.133609  -0.013195  2.097024
H    -1.909576  0.543762  4.149316
C    -0.383901  -0.883324  4.482510
C    0.855005  -1.623824  3.963604
C    2.068192  -0.725726  3.812582
O    2.123464  0.335465  4.530353
O    2.880152  -0.906831  2.851875
H    -0.216839  -0.597295  5.528416
H    -1.224018  -1.592897  4.487061
H    1.090165  -2.433423  4.670953
H    0.673548  -2.109075  2.996412
N    -0.437549  2.271478  5.262925
C    -1.260737  1.796778  6.368013
H    0.106201  3.115298  5.429870
H    -0.703571  1.113378  7.023203
H    -2.162054  1.288889  6.007059
H    -1.581091  2.662354  6.956518
Ca    2.483850  1.302625  2.504918
