32
Energy: -170821.218826 eV PBE+vdW (tier 2 basis)
C    0.171960  -0.854456  0.428034
C    0.135626  -0.369606  1.843406
O    1.217316  -0.452460  2.507372
H    0.511636  -1.899174  0.421489
H    0.922114  -0.273670  -0.126144
H    -0.792988  -0.784950  -0.084647
N    -1.032777  0.115381  2.299127
C    -1.511920  0.606528  3.619854
C    -0.821710  1.903851  4.091152
O    0.379836  1.971343  4.518803
H    -1.766311  0.099655  1.595359
H    -2.535744  0.922170  3.382472
C    -1.738743  -0.492893  4.712036
C    -0.702725  -1.585095  5.071738
C    0.421211  -1.131541  6.046772
C    -1.440254  -2.782430  5.700423
H    -2.628145  -1.033124  4.359058
H    -2.066427  0.031287  5.624358
H    -0.244186  -1.955087  4.141957
H    0.365993  -0.071683  6.367631
H    1.448876  -1.471652  5.726887
H    0.388168  -1.656466  7.017061
H    -0.736245  -3.583433  5.958353
H    -2.175224  -3.201404  5.001874
H    -1.970894  -2.486285  6.616280
N    -1.568114  2.996648  4.084068
C    -1.137740  4.324577  4.531051
H    -2.522083  2.921459  3.739060
H    -1.086642  5.001824  3.669333
H    -0.154961  4.250452  5.000436
H    -1.867851  4.713196  5.250166
Cd    1.674949  0.287037  4.438182
