32
Energy: -170821.209231 eV PBE+vdW (tier 2 basis)
C    -0.022682  -1.036317  0.562356
C    -0.342198  -0.438356  1.893778
O    0.217978  -0.958739  2.912939
H    -0.527242  -0.537343  -0.271717
H    -0.310626  -2.097163  0.575448
H    1.064227  -1.003804  0.407697
N    -1.203234  0.597850  1.923344
C    -1.838616  1.297585  3.065476
C    -0.846796  2.279754  3.714733
O    0.134541  1.880223  4.425888
H    -1.538349  0.883705  1.007083
H    -2.617848  1.909614  2.600417
C    -2.578955  0.295663  4.016396
C    -2.864728  0.681385  5.492465
C    -4.211176  0.084017  5.930920
C    -1.764000  0.205248  6.471274
H    -2.092938  -0.695790  3.983155
H    -3.538319  0.105936  3.516764
H    -2.927766  1.778186  5.580690
H    -5.028509  0.466442  5.306634
H    -4.439953  0.346609  6.970869
H    -4.209723  -1.012682  5.852059
H    -2.087105  0.184815  7.524868
H    -0.890889  0.895716  6.528929
H    -1.517152  -0.875933  6.303460
N    -0.998792  3.580790  3.524191
C    -2.007409  4.299453  2.731935
H    -0.281015  4.150765  3.975839
H    -3.023816  4.052182  3.059906
H    -1.889733  4.098615  1.659977
H    -1.854137  5.369898  2.894674
Cd    0.220964  -0.218328  4.904555
