32
Energy: -170820.011931 eV PBE+vdW (tier 2 basis)
C    0.929922  2.696702  2.098705
C    0.404055  1.363622  2.505946
O    1.249752  0.389957  2.596004
H    1.753993  2.997845  2.758150
H    0.155116  3.470536  2.079596
H    1.356116  2.600621  1.087697
N    -0.893984  1.214969  2.734097
C    -1.696862  -0.015985  2.787240
C    -3.169041  0.504621  2.620875
O    -3.408821  1.662297  2.961153
H    -1.505071  2.044935  2.707694
H    -1.425322  -0.643427  1.924418
C    -1.632428  -0.864490  4.068838
C    -1.691229  -0.179516  5.445214
C    -2.352845  -1.086246  6.486061
C    -0.323855  0.310798  5.927647
H    -0.718811  -1.555970  4.044017
H    -2.425526  -1.624795  3.984648
H    -2.303883  0.737617  5.315602
H    -2.397927  -0.595662  7.465778
H    -1.800473  -2.030523  6.611274
H    -3.379961  -1.337415  6.194377
H    -0.335244  0.770161  6.928433
H    0.143039  1.061004  5.268736
H    0.341324  -0.591207  6.128628
N    -4.077903  -0.371836  2.162241
C    -5.485862  -0.021839  1.975904
H    -3.757785  -1.253623  1.769155
H    -6.098660  -0.913581  2.144925
H    -5.662809  0.344862  0.954612
H    -5.754172  0.767609  2.684445
Cd    1.315539  -0.977457  4.194445
