32
Energy: -170819.831742 eV PBE+vdW (tier 2 basis)
C    -0.890765  0.687895  0.034959
C    -0.668160  0.849949  1.498535
O    0.409768  1.470091  1.883775
H    -0.918229  1.670541  -0.455511
H    -1.800686  0.126408  -0.200769
H    -0.024396  0.154110  -0.385031
N    -1.544510  0.333325  2.342567
C    -1.534635  0.121089  3.796550
C    -2.935409  -0.544582  4.053638
O    -3.758082  -0.502171  3.134727
H    -2.431965  -0.057708  1.967309
H    -0.749582  -0.623863  4.010880
C    -1.259796  1.329350  4.707365
C    -2.160780  2.589240  4.700411
C    -1.415018  3.747582  5.343697
C    -2.753958  3.000471  3.356583
H    -0.190038  1.630672  4.549619
H    -1.201723  0.948826  5.737224
H    -3.016515  2.373900  5.370677
H    -0.542713  4.122206  4.670496
H    -0.920784  3.512286  6.294856
H    -2.013462  4.662825  5.441573
H    -3.336491  3.926517  3.440909
H    -3.384744  2.233707  2.895267
H    -1.952715  3.243618  2.600846
N    -3.183375  -1.123652  5.239617
C    -2.284153  -1.395793  6.356312
H    -4.132813  -1.490805  5.310622
H    -2.571020  -2.352558  6.807155
H    -2.357070  -0.623747  7.136665
H    -1.245603  -1.493256  6.021740
Cd    0.326064  3.198398  3.042296
