32
Energy: -170821.136443 eV PBE+vdW (tier 2 basis)
C    -0.101070  0.722883  0.029986
C    -0.121270  0.355390  1.477677
O    1.008116  0.110676  2.023173
H    0.683765  1.466731  -0.151647
H    -1.064243  1.098827  -0.332383
H    0.165088  -0.176876  -0.546321
N    -1.314164  0.295281  2.092632
C    -1.741694  -0.285602  3.392275
C    -1.491097  0.681978  4.570867
O    -0.327122  0.845606  5.088155
H    -2.088916  0.563791  1.491422
H    -2.832062  -0.379574  3.291636
C    -1.227684  -1.710409  3.708741
C    -1.887705  -2.880435  2.931268
C    -1.723606  -2.803887  1.410877
C    -1.350271  -4.202943  3.487081
H    -1.386524  -1.880944  4.784517
H    -0.131316  -1.825112  3.528366
H    -2.965024  -2.821301  3.173890
H    -2.134163  -3.710439  0.949754
H    -0.662952  -2.752343  1.119183
H    -2.255711  -1.957898  0.956490
H    -1.879473  -5.048357  3.030979
H    -1.481530  -4.281093  4.574432
H    -0.281619  -4.330974  3.256168
N    -2.526291  1.319221  5.078457
C    -2.490417  2.241365  6.220095
H    -3.434961  1.163158  4.646233
H    -2.685455  3.262805  5.870118
H    -1.509688  2.194350  6.697573
H    -3.269373  1.950016  6.933617
Cd    1.288432  -0.110893  4.106689
