32
Energy: -170821.15061 eV PBE+vdW (tier 2 basis)
C    -0.512949  -3.254643  0.455737
C    -0.457411  -2.193046  1.501938
O    0.471023  -1.315338  1.386157
H    -0.738495  -2.774053  -0.508951
H    -1.277335  -4.012055  0.660267
H    0.471655  -3.728079  0.353532
N    -1.378253  -2.200829  2.475680
C    -1.777679  -1.099477  3.376129
C    -0.997070  -1.156454  4.710474
O    0.181167  -0.639216  4.810526
H    -2.048810  -2.966189  2.422383
H    -1.475595  -0.149346  2.895316
C    -3.306724  -1.049946  3.531040
C    -4.115705  -0.582670  2.289696
C    -3.641588  0.778313  1.768470
C    -4.220963  -1.621159  1.164333
H    -3.517249  -0.343486  4.348316
H    -3.679073  -2.039285  3.853163
H    -5.131997  -0.444099  2.690641
H    -4.342015  1.160616  1.015933
H    -2.662243  0.716972  1.264439
H    -3.581642  1.533721  2.564868
H    -5.002511  -1.322319  0.455034
H    -4.501607  -2.616763  1.538896
H    -3.295039  -1.708252  0.577199
N    -1.541695  -1.726981  5.759671
C    -0.924936  -1.857552  7.085550
H    -2.499444  -2.060650  5.657987
H    -1.309471  -1.072735  7.749881
H    0.159876  -1.764952  6.998381
H    -1.187958  -2.837834  7.496201
Cd    1.113466  -0.112949  2.992403
