32
Energy: -170819.83584 eV PBE+vdW (tier 2 basis)
C    -0.493838  0.937421  -0.137263
C    -0.892595  0.350179  1.174545
O    -0.144497  0.647960  2.190386
H    -0.468755  2.032784  -0.065622
H    -1.154375  0.628728  -0.954469
H    0.531958  0.610820  -0.365196
N    -1.941212  -0.452602  1.229468
C    -2.428329  -1.349190  2.285244
C    -3.559013  -2.170701  1.562524
O    -3.967038  -1.735913  0.483873
H    -2.508168  -0.593554  0.374130
H    -1.617184  -2.044682  2.551748
C    -2.942065  -0.668280  3.563489
C    -3.781309  0.614406  3.425768
C    -5.289165  0.275792  3.313190
C    -3.582804  1.554709  4.609660
H    -2.039947  -0.486331  4.238829
H    -3.466816  -1.411077  4.183979
H    -3.487159  1.142512  2.504703
H    -5.873150  1.190545  3.161011
H    -5.656860  -0.219934  4.221829
H    -5.473362  -0.382949  2.456053
H    -4.136761  2.498685  4.516395
H    -2.498416  1.948272  4.694319
H    -3.795147  1.097992  5.585591
N    -4.035136  -3.284257  2.142066
C    -3.536704  -4.031056  3.293542
H    -4.776688  -3.727230  1.597894
H    -3.510180  -5.097418  3.041992
H    -4.192759  -3.899449  4.165403
H    -2.517962  -3.727357  3.557081
Cd    -0.690035  1.116065  4.152343
