32
Energy: -170821.137973 eV PBE+vdW (tier 2 basis)
C    -0.854959  -1.944180  0.218014
C    -0.895773  -0.973231  1.350051
O    0.216659  -0.724825  1.938495
H    -0.217536  -1.524116  -0.575059
H    -1.846049  -2.155678  -0.197883
H    -0.378688  -2.875997  0.548980
N    -2.067523  -0.406980  1.674090
C    -2.312838  0.804510  2.490841
C    -2.539304  0.423805  3.971654
O    -1.541807  0.298472  4.782722
H    -2.864411  -0.717625  1.119982
H    -1.384995  1.407576  2.473780
C    -3.401718  1.666848  1.825451
C    -3.381313  3.166005  2.197684
C    -4.428700  3.900614  1.350811
C    -3.580426  3.452297  3.690628
H    -4.405295  1.237628  2.002655
H    -3.242685  1.586525  0.739274
H    -2.385992  3.547601  1.905654
H    -5.447613  3.570981  1.600409
H    -4.273126  3.741098  0.275803
H    -4.379034  4.980369  1.534998
H    -3.568402  4.534640  3.867140
H    -2.791023  3.028626  4.331408
H    -4.553115  3.083190  4.049744
N    -3.755336  0.210398  4.413760
C    -4.110063  -0.154496  5.789642
H    -4.520127  0.417834  3.773579
H    -5.023645  -0.756004  5.764051
H    -4.289502  0.754648  6.379169
H    -3.295948  -0.726046  6.242346
Cd    0.351506  0.094395  3.876386
