32
Energy: -170821.069181 eV PBE+vdW (tier 2 basis)
C    -0.266376  0.150511  0.173019
C    -0.074397  0.461573  1.622501
O    1.057057  0.914075  1.981151
H    -1.287453  -0.155033  -0.078094
H    0.430345  -0.651699  -0.109777
H    0.008197  1.032308  -0.420810
N    -1.109642  0.238646  2.449664
C    -1.272929  0.403271  3.911740
C    -0.950226  1.826805  4.410996
O    0.207913  2.187970  4.818088
H    -1.930913  -0.140386  1.985361
H    -2.360790  0.330940  4.029706
C    -0.772622  -0.753041  4.849775
C    0.578479  -1.522564  4.822445
C    0.885769  -2.274276  3.522243
C    1.830886  -0.821021  5.383861
H    -1.527943  -1.540189  4.712464
H    -0.939998  -0.378309  5.872035
H    0.379336  -2.298715  5.582232
H    1.684602  -3.009285  3.684042
H    1.225443  -1.610942  2.713414
H    0.008714  -2.825523  3.162023
H    2.501630  -1.524989  5.904801
H    1.636129  -0.023553  6.119423
H    2.589473  -0.539627  4.573777
N    -1.937194  2.702716  4.507885
C    -3.361588  2.542180  4.187984
H    -1.651534  3.607610  4.887187
H    -3.841114  3.517503  4.309592
H    -3.846794  1.837245  4.875543
H    -3.500713  2.224215  3.148363
Cd    1.883105  1.248836  3.912627
