32
Energy: -170821.02563 eV PBE+vdW (tier 2 basis)
C    -1.218047  -1.052132  0.625941
C    -0.876929  -0.045198  1.675388
O    0.364860  0.156886  1.895043
H    -0.949235  -2.048918  1.008547
H    -0.607765  -0.874238  -0.267636
H    -2.280462  -1.053214  0.358454
N    -1.891389  0.559253  2.316627
C    -1.939059  1.379407  3.553826
C    -1.556998  2.849593  3.279454
O    -0.332136  3.232183  3.193437
H    -2.806655  0.276699  1.976187
H    -3.000733  1.378001  3.829640
C    -1.188805  0.817564  4.784720
C    -1.845897  -0.384828  5.512565
C    -2.012353  -1.636045  4.645677
C    -1.044249  -0.686260  6.782882
H    -1.086809  1.642089  5.506800
H    -0.151235  0.478824  4.544993
H    -2.847968  -0.030622  5.818093
H    -2.729608  -1.506157  3.824753
H    -2.391355  -2.462486  5.259131
H    -1.050601  -1.968645  4.224797
H    -0.038741  -1.064778  6.543250
H    -1.546140  -1.463270  7.372104
H    -0.937359  0.196912  7.426502
N    -2.495731  3.768721  3.170674
C    -3.956682  3.614792  3.248529
H    -2.141823  4.717269  3.027479
H    -4.403595  4.576382  2.981016
H    -4.273924  3.360692  4.267512
H    -4.315774  2.866270  2.533346
Cd    1.138197  1.711251  3.104273
