32
Energy: -170819.906747 eV PBE+vdW (tier 2 basis)
C    -0.006435  -0.065837  0.075230
C    -0.272611  -0.195247  1.532610
O    0.679776  -0.685991  2.270792
H    -0.777372  0.510926  -0.444677
H    0.091589  -1.060898  -0.381974
H    0.966707  0.430265  -0.053443
N    -1.402381  0.173860  2.109471
C    -2.752515  0.358878  1.588970
C    -3.517585  0.865901  2.845861
O    -3.027088  0.628275  3.960825
H    -1.472867  0.230856  3.149948
H    -2.765729  1.107418  0.784629
C    -3.348990  -0.982560  1.069311
C    -3.653149  -2.095420  2.086035
C    -4.334128  -3.280106  1.371022
C    -2.422966  -2.696552  2.851854
H    -2.690650  -1.364795  0.272973
H    -4.295263  -0.731735  0.568173
H    -4.336953  -1.708991  2.856557
H    -4.621350  -4.064680  2.080301
H    -3.688227  -3.723713  0.601100
H    -5.251778  -2.926984  0.878750
H    -2.689161  -3.617788  3.382623
H    -2.148339  -1.944060  3.645475
H    -1.621047  -2.934730  2.125308
N    -4.683381  1.495825  2.643683
C    -5.516358  2.029641  3.716012
H    -4.968161  1.692143  1.686485
H    -5.456415  3.127595  3.730534
H    -5.164253  1.635738  4.672499
H    -6.561049  1.741483  3.544152
Cd    0.063229  -2.025626  3.790821
