32
Energy: -170821.067961 eV PBE+vdW (tier 2 basis)
C    -0.898161  -0.058872  -0.224266
C    -0.548872  -0.260754  1.214252
O    0.634786  -0.662803  1.471180
H    -1.918180  0.309715  -0.376085
H    -0.780740  -1.018377  -0.748812
H    -0.180372  0.639360  -0.675024
N    -1.497143  -0.018158  2.135501
C    -1.540945  -0.309690  3.595044
C    -0.787028  0.789118  4.381700
O    0.483588  0.757693  4.550943
H    -2.377814  0.309933  1.746676
H    -2.603141  -0.207472  3.848807
C    -1.171175  -1.764170  3.962666
C    -1.846611  -2.326638  5.229715
C    -1.491367  -3.809213  5.379926
C    -1.520466  -1.536761  6.500410
H    -0.069120  -1.922904  4.136516
H    -1.402857  -2.398693  3.095998
H    -2.934915  -2.256751  5.040029
H    -2.041402  -4.249301  6.220163
H    -0.419370  -3.944875  5.591285
H    -1.741802  -4.388304  4.481562
H    -1.990406  -2.010613  7.370465
H    -1.885361  -0.500176  6.479850
H    -0.436534  -1.515219  6.694520
N    -1.454590  1.808121  4.889157
C    -2.902668  2.058117  4.879892
H    -0.872565  2.489766  5.380084
H    -3.076375  3.010628  5.388130
H    -3.444695  1.276204  5.426686
H    -3.285215  2.147855  3.856328
Cd    1.542181  -0.672165  3.386009
