32
Energy: -170819.565845 eV PBE+vdW (tier 2 basis)
C    0.314074  -0.319318  0.729729
C    -0.091867  0.611158  1.831676
O    0.758101  1.558259  2.072727
H    -0.555376  -0.657609  0.152230
H    0.806068  -1.197019  1.175699
H    1.031454  0.172775  0.066750
N    -1.205980  0.456137  2.512214
C    -2.272907  -0.544135  2.349208
C    -3.437829  0.079054  3.149570
O    -3.225908  1.066653  3.867850
H    -1.493917  1.131552  3.245817
H    -2.561890  -0.580019  1.286893
C    -1.875468  -1.975484  2.801915
C    -1.107891  -2.131129  4.129485
C    -1.881120  -1.656150  5.362111
C    -0.659566  -3.588898  4.273826
H    -1.287150  -2.420420  1.986156
H    -2.793459  -2.580858  2.852386
H    -0.185775  -1.518088  4.054130
H    -1.338628  -1.917515  6.278480
H    -2.868832  -2.142750  5.420405
H    -2.053710  -0.570826  5.387844
H    -0.035235  -3.720464  5.167550
H    -0.079883  -3.932362  3.407009
H    -1.525080  -4.259278  4.391447
N    -4.684126  -0.449627  3.071073
C    -5.235933  -1.419975  2.146440
H    -5.347067  0.020824  3.692914
H    -6.087118  -0.972927  1.610950
H    -5.622548  -2.287955  2.705227
H    -4.492060  -1.761980  1.423625
Cd    0.810843  3.341402  3.225527
