32
Energy: -170821.028718 eV PBE+vdW (tier 2 basis)
C    -2.056110  0.241599  0.592478
C    -1.249344  0.063230  1.836669
O    -0.064714  -0.392682  1.691157
H    -2.972313  0.820649  0.752954
H    -2.332074  -0.758019  0.221474
H    -1.443216  0.717029  -0.182182
N    -1.827867  0.372417  3.008957
C    -1.466123  0.058084  4.414778
C    -0.424260  1.039375  4.986973
O    0.829805  0.951282  4.712404
H    -2.768412  0.744699  2.905195
H    -2.395501  0.238514  4.967236
C    -1.091067  -1.410017  4.719810
C    -2.234737  -2.458189  4.623267
C    -3.386367  -2.113249  5.577447
C    -2.727216  -2.735507  3.198955
H    -0.690467  -1.422965  5.745294
H    -0.270841  -1.793801  4.066880
H    -1.765738  -3.382961  4.995140
H    -4.086388  -2.956976  5.625999
H    -3.973891  -1.246765  5.235707
H    -3.038871  -1.923330  6.602300
H    -3.351903  -3.637003  3.193374
H    -1.899752  -2.919197  2.497803
H    -3.352719  -1.922835  2.803793
N    -0.800077  1.980903  5.829824
C    -2.150207  2.296266  6.322316
H    -0.034883  2.557415  6.186862
H    -2.066701  3.170754  6.973475
H    -2.559878  1.467897  6.913145
H    -2.823500  2.552433  5.496089
Cd    1.390469  -0.437283  3.220931
