32
Energy: -170819.693178 eV PBE+vdW (tier 2 basis)
C    0.613127  1.278107  0.949316
C    0.080397  0.027500  1.577910
O    0.840920  -1.010817  1.446870
H    0.486493  2.135340  1.624450
H    0.058674  1.479553  0.020647
H    1.671603  1.156701  0.703521
N    -1.079448  -0.003222  2.199567
C    -2.028894  1.090717  2.440625
C    -2.962863  0.500843  3.529418
O    -2.874580  -0.689507  3.838893
H    -1.411230  -0.859047  2.678588
H    -1.484018  1.949552  2.862175
C    -2.837302  1.530104  1.180619
C    -2.766456  3.038691  0.854231
C    -3.458536  3.291852  -0.488477
C    -3.353475  3.925857  1.957141
H    -3.895562  1.244563  1.296594
H    -2.475312  0.938549  0.327488
H    -1.696700  3.301785  0.750057
H    -4.535170  3.072572  -0.437740
H    -3.027796  2.683130  -1.294043
H    -3.358794  4.347750  -0.775095
H    -3.308979  4.984857  1.673063
H    -2.800707  3.857238  2.909684
H    -4.418070  3.695000  2.126973
N    -3.870012  1.344666  4.079123
C    -4.792916  0.949024  5.121069
H    -3.836661  2.328638  3.806181
H    -5.731827  1.503540  4.997153
H    -4.388355  1.197960  6.118653
H    -4.954177  -0.132976  5.075980
Cd    0.809359  -3.048785  2.063523
