32
Energy: -170821.17786 eV PBE+vdW (tier 2 basis)
C    -3.803487  -0.478413  -1.647085
C    -2.814665  -0.752451  -0.564246
O    -1.580836  -0.537157  -0.840224
H    -4.827984  -0.744970  -1.365523
H    -3.510769  -1.016238  -2.557946
H    -3.766969  0.595755  -1.884964
N    -3.260016  -1.184737  0.625075
C    -2.552049  -1.189691  1.923276
C    -1.832889  -2.535362  2.169914
O    -0.637028  -2.736332  1.727003
H    -4.268221  -1.321934  0.684802
H    -1.750700  -0.430331  1.867304
C    -3.509234  -0.734110  3.035654
C    -2.861672  -0.497829  4.419110
C    -1.692023  0.492477  4.350990
C    -3.944443  -0.016365  5.393820
H    -4.353208  -1.443521  3.121479
H    -3.958028  0.211902  2.691997
H    -2.473406  -1.458646  4.799995
H    -0.830028  0.110504  3.779758
H    -1.315047  0.703309  5.358930
H    -2.001513  1.453371  3.913657
H    -4.784435  -0.721442  5.457095
H    -4.345160  0.961544  5.091838
H    -3.529550  0.093336  6.402767
N    -2.439907  -3.483576  2.843889
C    -1.887977  -4.808750  3.149029
H    -3.347602  -3.253864  3.246241
H    -1.105682  -5.056926  2.428141
H    -2.697707  -5.543518  3.095601
H    -1.466168  -4.808816  4.162663
Cd    0.015402  -1.371220  0.255959
