32
Energy: -170821.184452 eV PBE+vdW (tier 2 basis)
C    0.323945  2.022544  2.451806
C    -0.067237  0.588672  2.299455
O    0.882007  -0.249581  2.129390
H    -0.527775  2.688725  2.625505
H    0.845153  2.338415  1.536011
H    1.044150  2.116171  3.275339
N    -1.374582  0.281585  2.346682
C    -2.123993  -0.956477  1.998899
C    -2.123170  -1.993516  3.144217
O    -1.109435  -2.733155  3.410192
H    -1.973097  1.084390  2.526250
H    -3.160262  -0.608101  1.895260
C    -1.769573  -1.578611  0.636116
C    -2.801134  -2.602774  0.121716
C    -4.127999  -1.920203  -0.248400
C    -2.217470  -3.362722  -1.075002
H    -0.776432  -2.103750  0.635626
H    -1.623904  -0.763242  -0.088838
H    -2.994264  -3.334218  0.927192
H    -4.840155  -2.670547  -0.612819
H    -3.987318  -1.182327  -1.050392
H    -4.614852  -1.413824  0.598445
H    -2.929987  -4.110494  -1.442070
H    -1.293315  -3.898181  -0.808918
H    -1.991394  -2.684036  -1.909423
N    -3.224435  -2.139924  3.851521
C    -3.387527  -3.102713  4.949430
H    -4.018364  -1.544774  3.626816
H    -2.945803  -4.063918  4.667527
H    -4.456448  -3.227062  5.140771
H    -2.894710  -2.728921  5.855891
Cd    0.657817  -2.342458  2.299945
