32
Energy: -170821.197181 eV PBE+vdW (tier 2 basis)
C    1.098442  -1.044082  0.813826
C    0.222997  -0.006612  1.431769
O    0.577567  1.216577  1.276939
H    1.086848  -0.898316  -0.277347
H    0.772207  -2.065387  1.038428
H    2.135168  -0.897681  1.142807
N    -0.876506  -0.397519  2.092421
C    -2.074272  0.397139  2.438984
C    -1.989620  0.962959  3.874301
O    -1.318024  2.037742  4.122299
H    -1.010042  -1.406683  2.140569
H    -2.087166  1.280014  1.772438
C    -3.341861  -0.410019  2.123522
C    -3.520781  -0.783039  0.631913
C    -4.828585  -1.568930  0.473098
C    -3.489258  0.445769  -0.283840
H    -4.206926  0.193402  2.441304
H    -3.354164  -1.338255  2.723639
H    -2.693671  -1.454435  0.340058
H    -4.947106  -1.909175  -0.562405
H    -5.699848  -0.945106  0.718143
H    -4.854451  -2.458070  1.117425
H    -3.692283  0.149823  -1.320191
H    -2.512196  0.955716  -0.300222
H    -4.258977  1.179248  -0.001269
N    -2.622958  0.357260  4.851075
C    -2.644218  0.776165  6.257735
H    -3.190168  -0.451442  4.598893
H    -3.608410  1.249538  6.483821
H    -1.833813  1.483899  6.443952
H    -2.522605  -0.111080  6.888384
Cd    -0.094251  2.747345  2.558960
