15
Energy: -235995.880409 eV PBE+vdW (tier 2 basis)
N    -0.303307  -0.783486  -0.310942
C    -0.233371  0.049350  0.932460
C    1.185725  0.539870  1.314253
O    1.503321  0.766064  2.451530
H    0.144896  -0.247143  -1.064873
H    0.323719  -1.590331  -0.193878
H    -0.823468  0.963571  0.745974
C    -0.833942  -0.692385  2.114774
O    -2.212292  -1.082711  1.753057
H    -0.858034  -0.039624  2.993852
H    -0.267560  -1.601544  2.362919
H    -2.704306  -1.234249  2.580296
O    1.940818  0.689888  0.210490
H    2.819706  1.041056  0.468998
Ba    -2.909904  -1.497326  -0.671912
