15
Energy: -235995.860711 eV PBE+vdW (tier 2 basis)
N    -0.178251  -0.161074  0.007658
C    0.091518  -0.221660  1.410288
C    1.490543  -0.713295  1.826543
O    2.510772  -0.564074  1.114305
H    0.127947  0.690227  -0.453335
H    0.097532  -0.979355  -0.529177
H    0.043018  0.803700  1.823030
C    -1.030123  -1.040556  2.084195
O    -0.680505  -1.181399  3.516634
H    -1.125253  -2.036075  1.629164
H    -1.978164  -0.500862  2.008751
H    -1.244480  -1.835489  3.971059
O    1.636081  -1.306440  3.003861
H    0.524157  -1.366912  3.474366
Ba    4.334868  -1.390973  2.593138
