15
Energy: -235996.600577 eV PBE+vdW (tier 2 basis)
N    0.000912  1.185678  2.084123
C    0.477074  0.481070  3.329003
C    1.803803  1.234558  3.675928
O    2.453520  0.770116  4.687563
H    -0.934368  1.598848  2.175180
H    0.018483  0.610398  1.232456
H    -0.259175  0.647004  4.126284
C    0.661439  -1.026356  3.087583
O    1.053556  -1.683271  4.325417
H    1.435996  -1.205348  2.325121
H    -0.282150  -1.467776  2.738392
H    0.570723  -2.526191  4.365534
O    2.108120  2.178918  2.954330
H    0.758632  1.957011  2.011185
Ba    3.088435  -0.963662  6.073903
