15
Energy: -235996.29022 eV PBE+vdW (tier 2 basis)
N    0.070447  -0.522219  -0.372981
C    -0.702606  -0.560362  0.928270
C    0.401837  -0.500297  1.993878
O    1.570353  -0.625115  1.683130
H    1.076611  -0.647582  -0.077451
H    -0.019174  0.374928  -0.865975
H    -1.350396  0.322646  0.987795
C    -1.573717  -1.853804  0.984366
O    -2.414702  -1.873763  2.085079
H    -0.896088  -2.729307  0.977654
H    -2.157489  -1.879484  0.043412
H    -0.198910  -1.272215  -1.023579
O    -0.060835  -0.313220  3.230341
H    0.712226  -0.257085  3.833487
Ba    -3.811554  -2.223119  3.754573
