15
Energy: -235996.63988 eV PBE+vdW (tier 2 basis)
N    -0.174854  0.087302  -0.085527
C    -0.105584  0.147696  1.426052
C    1.370438  0.182940  1.832903
O    2.133064  -0.629223  1.210350
H    -1.067812  -0.289848  -0.436462
H    -0.047646  1.018960  -0.508023
H    -0.648830  1.034776  1.767831
C    -0.671319  -1.186720  2.015740
O    0.016667  -1.536682  3.223141
H    -0.496778  -1.998207  1.291348
H    -1.751132  -1.100555  2.189767
H    -0.608271  -1.496484  3.964801
O    1.698246  0.813848  2.871707
H    0.602989  -0.518810  -0.410834
Ba    3.131819  -1.143993  3.534208
