15
Energy: -235995.506016 eV PBE+vdW (tier 2 basis)
N    -0.153623  0.242852  0.137300
C    -0.217818  -0.030618  1.569267
C    1.157946  -0.434223  2.051228
O    1.502850  -1.665877  2.032210
H    0.173474  1.185416  -0.073347
H    0.400094  -0.424893  -0.397059
H    -0.526786  0.886819  2.087747
C    -1.230895  -1.139266  1.910143
O    -0.765804  -2.441504  1.467221
H    -2.173613  -0.877306  1.408017
H    -1.397352  -1.168394  2.998277
H    0.597476  -2.212986  1.774799
O    1.998251  0.488626  2.389723
H    2.890812  0.129368  2.598155
Ba    -1.791080  -4.350472  0.698370
