15
Energy: -235996.024667 eV PBE+vdW (tier 2 basis)
N    0.312259  -2.075392  0.509967
C    -0.012196  -0.652660  0.832657
C    1.311605  0.063014  1.207944
O    2.303853  -0.577927  1.472964
H    0.629857  -2.097140  -0.467168
H    1.196282  -2.251242  1.030411
H    -0.464623  -0.169170  -0.043181
C    -0.964637  -0.564987  2.020998
O    -2.129184  -1.434689  1.762288
H    -1.308595  0.466222  2.160630
H    -0.485743  -0.908157  2.949902
H    -2.927632  -0.991087  2.099453
O    1.164927  1.384113  1.221646
H    2.010775  1.811745  1.477812
Ba    -1.708949  -3.824644  0.941678
