15
Energy: -235994.931865 eV PBE+vdW (tier 2 basis)
N    -0.013108  0.065033  -0.130809
C    -0.034674  0.012646  1.304328
C    1.359131  0.106765  1.941388
O    2.382073  0.378525  1.393916
H    -0.359654  0.943411  -0.507262
H    0.915477  -0.110679  -0.515045
H    -0.628226  0.841040  1.725716
C    -0.728945  -1.327721  1.664498
O    -0.855976  -1.558735  3.141059
H    -0.171980  -2.169739  1.233382
H    -1.745263  -1.307314  1.249679
H    -0.005884  -1.140096  3.509845
O    1.286886  -0.202514  3.308223
H    2.190115  -0.151360  3.687367
Ba    -2.674899  -2.742598  4.202046
