15
Energy: -235996.416678 eV PBE+vdW (tier 2 basis)
N    -0.324086  -1.113747  0.134399
C    -0.100055  -0.258126  1.368876
C    1.417152  -0.081048  1.587706
O    2.009606  -0.412706  2.607007
H    -1.287626  -1.009063  -0.216247
H    0.320610  -0.901737  -0.640331
H    -0.542162  0.731746  1.183118
C    -0.752236  -1.021391  2.525912
O    -0.171950  -2.291573  2.598177
H    -1.845287  -1.073445  2.364148
H    -0.623483  -0.399576  3.438676
H    -0.200911  -2.097087  0.460286
O    1.982762  0.491568  0.535491
H    2.942558  0.646395  0.680614
Ba    1.482109  -2.612209  4.166167
