20
Energy: -605158.380102 eV PBE+vdW (tier 2 basis)
N    -0.718263  1.085211  0.288701
C    -1.197340  0.531978  1.620777
C    -0.003066  0.549044  2.573341
O    -0.223288  0.609407  3.817543
H    -0.674952  2.115291  0.294164
H    -1.324018  0.802525  -0.495793
H    -2.003935  1.178672  1.987077
C    -1.678707  -0.928149  1.411362
C    -2.198324  -1.657531  2.662179
C    -1.150424  -2.169367  3.629004
O    0.071419  -2.119606  3.392840
O    -1.532929  -2.693847  4.771742
H    -0.866123  -1.514078  0.956303
H    -2.508346  -0.900688  0.689395
H    -2.781587  -2.532680  2.328999
H    -2.907570  -1.032586  3.228916
O    1.148632  0.329331  2.073284
H    0.243813  0.735453  0.119690
H    -2.504319  -2.739664  4.883648
Pb    1.769126  -0.674516  4.178340
