20
Energy: -605156.728346 eV PBE+vdW (tier 2 basis)
N    0.029760  -1.220713  0.329921
C    -0.272953  -0.449014  1.611696
C    1.020925  0.135520  2.213203
O    1.082079  0.516862  3.345963
H    -0.583513  -0.947960  -0.448552
H    1.010970  -1.028204  0.056322
H    -0.925941  0.398939  1.366327
C    -0.942275  -1.479499  2.530463
C    -0.259616  -2.797546  2.151600
C    -0.127627  -2.769215  0.630224
O    0.884754  -3.441300  0.053484
O    -1.331866  -3.196765  -0.083888
H    -2.028095  -1.505190  2.359564
H    -0.789294  -1.206282  3.580438
H    -0.793836  -3.694912  2.488025
H    0.758211  -2.852266  2.565393
O    2.011061  0.166297  1.284717
H    2.807126  0.590994  1.668841
H    -2.150119  -3.144983  0.449587
Pb    0.054643  -5.010511  -1.177909
