20
Energy: -605157.364017 eV PBE+vdW (tier 2 basis)
N    0.122869  0.444421  0.236425
C    0.379358  0.015678  1.676854
C    1.875844  -0.193334  1.871897
O    2.320221  -0.312204  3.061310
H    0.577182  -0.203845  -0.425982
H    0.478695  1.389572  0.031345
H    0.051771  0.847371  2.317819
C    -0.397559  -1.264896  2.016517
C    -1.919797  -1.112102  1.973154
C    -2.572681  -2.300415  2.693130
O    -1.956201  -3.064856  3.401181
O    -3.884761  -2.342031  2.437743
H    -0.109419  -1.560253  3.035838
H    -0.067539  -2.086182  1.360470
H    -2.336004  -1.068888  0.954621
H    -2.252688  -0.202040  2.498781
O    2.652348  -0.288741  0.860165
H    -0.891659  0.441289  0.047664
H    -4.280917  -3.086902  2.936594
Pb    4.485358  -0.699693  2.331840
