20
Energy: -605157.813142 eV PBE+vdW (tier 2 basis)
N    1.690830  0.169286  1.084967
C    0.273050  -0.200801  1.401537
C    0.042866  -0.079275  2.928968
O    0.743063  0.818387  3.571171
H    1.765871  0.499045  0.116971
H    2.290282  -0.664324  1.137000
H    -0.352935  0.594235  0.961744
C    -0.123107  -1.559509  0.777463
C    -1.632249  -1.795752  0.497034
C    -2.384599  -2.641741  1.482666
O    -2.271405  -2.565060  2.739829
O    -3.214764  -3.489688  0.962736
H    0.299413  -2.383230  1.371702
H    0.368292  -1.613606  -0.203033
H    -1.757114  -2.271767  -0.482526
H    -2.187261  -0.843360  0.430800
O    -0.799850  -0.754905  3.519887
H    -1.605212  -1.781763  3.058504
H    -3.719082  -3.982643  1.650456
Pb    2.496785  1.826736  2.799106
