20
Energy: -605156.704776 eV PBE+vdW (tier 2 basis)
N    -0.853813  0.772276  0.295672
C    -0.586814  0.173286  1.581840
C    0.777775  0.567575  2.210268
O    1.711967  -0.247600  2.432341
H    -1.282585  1.694049  0.362802
H    -0.048052  0.829284  -0.326802
H    -1.365229  0.499515  2.289124
C    -0.542129  -1.351119  1.504797
C    -1.631678  -2.254150  0.962701
C    -1.086439  -3.674651  0.995367
O    0.068297  -3.939549  1.417458
O    -1.802090  -4.683560  0.586412
H    -0.346016  -1.693266  2.542929
H    0.333668  -1.551109  0.847339
H    -1.907675  -1.983549  -0.069374
H    -2.555922  -2.210026  1.561042
O    0.905838  1.844294  2.440301
H    1.793698  2.070792  2.797374
H    -2.692600  -4.434615  0.262337
Pb    1.884293  -2.676362  2.274941
