20
Energy: -605158.361421 eV PBE+vdW (tier 2 basis)
N    1.666454  -0.682785  0.374705
C    0.587516  -0.054596  1.194389
C    1.126042  0.218004  2.593776
O    2.081180  -0.407622  3.091751
H    1.248376  -1.242497  -0.375673
H    2.206951  0.050113  -0.099362
H    0.316345  0.916230  0.753892
C    -0.725319  -0.884883  1.259955
C    -0.869190  -2.058821  2.256032
C    -0.053219  -3.302369  1.991653
O    1.184576  -3.289381  1.818414
O    -0.621170  -4.480065  1.958597
H    -0.961450  -1.217035  0.237813
H    -1.518338  -0.171576  1.521126
H    -1.936072  -2.317533  2.292231
H    -0.615554  -1.741495  3.282534
O    0.460001  1.139178  3.235803
H    0.811580  1.283603  4.143591
H    -1.590234  -4.456883  2.091671
Pb    3.143525  -2.096587  1.815103
