20
Energy: -605157.141364 eV PBE+vdW (tier 2 basis)
N    0.031033  -0.342849  -0.145551
C    -0.172926  -0.175732  1.255603
C    1.059059  -0.136745  2.157395
O    0.987919  0.145952  3.411443
H    0.427509  -1.240742  -0.418184
H    0.536963  0.414344  -0.600104
H    -0.610668  0.830072  1.409577
C    -1.171500  -1.245236  1.824687
C    -2.531213  -0.697560  2.263159
C    -2.592587  0.073505  3.543117
O    -3.738332  0.357483  4.046530
O    -1.537754  0.477358  4.189754
H    -0.723803  -1.840748  2.633220
H    -1.353084  -1.945456  1.000493
H    -3.261584  -1.516288  2.370880
H    -2.976035  -0.051918  1.483618
O    2.211876  -0.366946  1.639516
H    2.949059  -0.308008  2.290872
H    0.024590  0.273788  3.712512
Pb    -2.972335  1.403923  5.889730
