20
Energy: -605157.145552 eV PBE+vdW (tier 2 basis)
N    -0.120391  -0.140577  0.013917
C    -0.286875  0.090290  1.500253
C    1.157390  0.354388  1.976033
O    2.094579  0.151064  1.226762
H    -0.398034  0.671976  -0.550024
H    0.923660  -0.275900  -0.097058
H    -0.904496  0.985203  1.648844
C    -0.905234  -1.130963  2.209803
C    -2.301798  -1.460742  1.766136
C    -2.724895  -2.727973  1.566296
O    -2.029696  -3.845115  1.599988
O    -4.068783  -3.066937  1.304284
H    -0.904046  -0.880483  3.283495
H    -0.244421  -2.003569  2.098662
H    -0.647061  -0.959737  -0.314043
H    -3.043103  -0.659841  1.737472
O    1.200026  0.776582  3.227834
H    2.131025  0.926493  3.500789
H    -4.711534  -2.336762  1.389857
Pb    -3.473615  -5.465443  1.420953
