20
Energy: -605156.977918 eV PBE+vdW (tier 2 basis)
N    1.024779  -1.782246  0.102233
C    0.393788  -0.722401  0.848333
C    1.270349  -0.290691  1.999504
O    2.508611  -0.586479  2.040365
H    0.539450  -1.978585  -0.772328
H    2.007604  -1.608390  -0.105462
H    0.285361  0.237649  0.278327
C    -1.031295  -1.167204  1.317614
C    -2.208625  -0.228649  1.015194
C    -2.417682  0.978029  1.878274
O    -1.594360  1.419596  2.745898
O    -3.495327  1.690798  1.800195
H    -1.028211  -1.451772  2.378753
H    -1.231558  -2.102972  0.781503
H    -3.144867  -0.810078  1.074776
H    -2.173345  0.138750  -0.027056
O    0.784451  0.434950  2.966493
H    -0.700499  0.926983  2.813942
H    -4.148138  1.353765  1.152494
Pb    2.917784  0.448915  4.037114
