20
Energy: -605157.256439 eV PBE+vdW (tier 2 basis)
N    0.675484  0.368992  0.220657
C    -0.155185  0.117935  1.387270
C    0.803581  -0.384242  2.454915
O    1.198758  -1.585820  2.574667
H    1.210579  -0.422193  -0.132166
H    1.252273  1.206823  0.273889
H    -0.540339  1.088092  1.731653
C    -1.336686  -0.791602  1.022026
C    -2.509753  -0.846284  2.008595
C    -2.387068  -1.744063  3.208818
O    -1.582867  -2.707987  3.280544
O    -3.172002  -1.592289  4.239809
H    -0.994802  -1.809777  0.748230
H    -1.716557  -0.388241  0.072941
H    -3.404602  -1.215934  1.473755
H    -2.782879  0.166261  2.345719
O    1.336933  0.562535  3.182656
H    2.075100  0.234170  3.742650
H    -3.808378  -0.853072  4.147861
Pb    0.309241  -3.658718  2.543869
