20
Energy: -605157.499146 eV PBE+vdW (tier 2 basis)
N    0.115288  0.838650  0.577523
C    0.197298  0.010808  1.815624
C    1.660802  -0.311169  2.120214
O    2.550789  -0.222335  1.237830
H    -0.732072  0.472167  -0.005401
H    -0.097792  1.813469  0.819638
H    -0.212579  0.584503  2.662999
C    -0.582621  -1.330998  1.683151
C    -2.112140  -1.224710  1.540660
C    -2.602991  -0.856703  0.156942
O    -1.943992  -0.195046  -0.657173
O    -3.814088  -1.307428  -0.090184
H    -0.380215  -1.923919  2.586218
H    -0.162939  -1.912255  0.847049
H    -2.539589  -0.494832  2.248622
H    -2.562674  -2.187289  1.817384
O    2.040645  -0.738773  3.287210
H    1.333494  -0.771867  3.964371
H    -4.117211  -1.016037  -0.977248
Pb    2.119981  0.749103  -0.765149
