20
Energy: -605156.905223 eV PBE+vdW (tier 2 basis)
N    -0.137800  1.006630  0.402423
C    -0.156303  0.220963  1.624678
C    1.301710  -0.234408  1.706545
O    2.113070  0.350272  2.500979
H    -0.453395  1.965767  0.511107
H    -0.512978  0.586044  -0.441444
H    -0.276766  0.917341  2.464794
C    -1.259975  -0.848436  1.811093
C    -1.162102  -2.248646  1.134196
C    -0.989429  -2.250718  -0.350495
O    0.114598  -1.925461  -0.909053
O    -1.919119  -2.566046  -1.190423
H    -2.201388  -0.363881  1.514755
H    -1.353692  -1.063365  2.884651
H    -2.069745  -2.808880  1.396097
H    -0.314983  -2.813931  1.552338
O    1.795133  -1.140108  0.902506
H    0.830455  -1.666111  -0.219025
H    -2.758283  -2.837309  -0.764577
Pb    3.990898  -0.650140  1.700831
