20
Energy: -605157.312533 eV PBE+vdW (tier 2 basis)
N    0.189847  0.627164  0.628856
C    0.269805  -0.018361  1.974159
C    1.707971  0.120277  2.486564
O    2.435113  1.062632  2.080464
H    0.504355  -0.059008  -0.073111
H    -0.874934  0.697875  0.445795
H    -0.301767  0.630665  2.666163
C    -0.377662  -1.420307  1.990003
C    -1.911021  -1.445594  2.141155
C    -2.749369  -0.701255  1.117483
O    -2.383236  0.277104  0.456337
O    -3.970730  -1.194534  1.046755
H    0.005505  -2.006178  2.841053
H    -0.061338  -1.974717  1.092837
H    -2.204054  -1.032675  3.121956
H    -2.247463  -2.490393  2.161064
O    2.209920  -0.650414  3.400292
H    1.618309  -1.381058  3.677513
H    -4.517647  -0.664209  0.427826
Pb    1.698920  2.500484  0.466244
