20
Energy: -605156.969666 eV PBE+vdW (tier 2 basis)
N    -1.264329  1.170378  2.562818
C    -0.512779  -0.049583  2.715937
C    0.557940  0.098390  1.639864
O    1.654886  0.700990  1.904966
H    -1.445178  1.717467  3.396844
H    -2.004068  1.214784  1.871980
H    0.044717  0.026846  3.659220
C    -1.273198  -1.406153  2.768892
C    -2.581531  -1.583958  1.967649
C    -2.507757  -2.069244  0.552984
O    -1.569940  -1.800190  -0.265682
O    -3.440990  -2.798844  0.029881
H    -1.569006  -1.528268  3.818926
H    -0.578513  -2.235663  2.568138
H    -3.157660  -0.638973  1.936695
H    -3.232934  -2.278428  2.517700
O    0.371680  -0.297468  0.413212
H    -0.817864  -1.192365  0.090058
H    -4.159152  -3.027583  0.654638
Pb    2.508302  0.627202  -0.188993
