20
Energy: -605156.76381 eV PBE+vdW (tier 2 basis)
N    0.481336  -0.787016  -0.579193
C    0.167462  -0.451305  0.852276
C    1.476583  -0.238830  1.612467
O    2.588099  -0.132706  1.027566
H    -0.214172  -0.344158  -1.191228
H    0.343847  -1.798018  -0.716987
H    -0.323566  0.538652  0.852601
C    -0.788221  -1.487082  1.479575
C    -1.432424  -1.087415  2.815437
C    -2.827709  -1.737852  2.926376
O    -3.418561  -2.181779  1.968784
O    -3.258881  -1.704251  4.187514
H    -0.274388  -2.456184  1.576018
H    -1.622562  -1.638562  0.774309
H    -0.861072  -1.404357  3.703695
H    -1.611112  -0.000249  2.888617
O    1.482112  -0.118312  2.900273
H    0.591833  -0.249324  3.306089
H    -4.159611  -2.089456  4.231438
Pb    2.831822  -0.233225  -1.205281
