20
Energy: -605158.057828 eV PBE+vdW (tier 2 basis)
N    -0.642576  0.993273  2.217404
C    0.651857  0.295000  1.836552
C    1.270009  1.278857  0.812069
O    0.669512  2.289087  0.497038
H    -1.482779  0.445842  1.995377
H    -0.619514  1.863528  1.601655
H    1.299276  0.267474  2.723416
C    0.433078  -1.109330  1.258497
C    0.060099  -2.214762  2.258563
C    1.199893  -2.864738  3.000760
O    2.412391  -2.459762  2.879085
O    0.944549  -3.876233  3.756023
H    1.357517  -1.385244  0.735253
H    -0.342957  -1.056231  0.479322
H    -0.447594  -3.035601  1.726934
H    -0.677802  -1.901738  3.016248
O    2.453522  0.880287  0.379406
H    2.810663  1.534471  -0.259821
H    -0.687401  1.278927  3.202029
Pb    3.150257  -4.234105  4.208191
