20
Energy: -605157.267261 eV PBE+vdW (tier 2 basis)
N    -0.291883  -0.092425  0.531586
C    0.206093  0.034156  1.934334
C    1.720632  0.222655  1.917804
O    2.303226  0.673031  0.897220
H    -0.314826  -1.084068  0.258270
H    -1.313131  0.214352  0.630493
H    -0.173364  1.012449  2.285082
C    -0.327151  -1.047274  2.901763
C    -1.840070  -1.369370  2.789344
C    -2.760340  -0.187354  2.535451
O    -2.605529  0.606508  1.600333
O    -3.761550  -0.118778  3.391201
H    -0.130140  -0.699535  3.928787
H    0.226311  -1.988079  2.764468
H    -2.153583  -1.893998  3.698595
H    -2.017752  -2.072351  1.960008
O    2.460513  -0.001356  2.959412
H    1.974284  -0.368128  3.727533
H    -4.364711  0.618574  3.151943
Pb    1.150172  1.098226  -1.015365
