20
Energy: -605158.155092 eV PBE+vdW (tier 2 basis)
N    2.033075  1.258818  0.887437
C    0.788423  0.399032  1.022634
C    -0.315247  1.451282  1.296885
O    -0.029913  2.632720  1.355947
H    2.734125  1.081150  1.615996
H    1.643532  2.242732  1.016700
H    0.588424  -0.051153  0.039703
C    0.884802  -0.680067  2.107943
C    1.809216  -1.852376  1.749619
C    1.754614  -3.013442  2.712364
O    2.625168  -3.954325  2.600391
O    0.848663  -3.093681  3.617367
H    -0.135636  -1.053947  2.263602
H    1.182276  -0.219872  3.063280
H    2.870024  -1.569518  1.663889
H    1.545431  -2.277584  0.765300
O    -1.510719  0.904662  1.426880
H    -2.185003  1.604060  1.568864
H    2.487530  1.185830  -0.030104
Pb    1.674215  -5.154323  4.303303
