20
Energy: -605157.596803 eV PBE+vdW (tier 2 basis)
N    -0.182022  0.552092  0.403943
C    -0.050980  -0.079940  1.768273
C    1.405300  -0.034498  2.216446
O    1.687129  -0.334556  3.426515
H    -0.185412  1.579202  0.444874
H    -1.101407  0.211873  -0.035706
H    -0.632231  0.534101  2.472398
C    -0.589762  -1.532076  1.789522
C    -2.123200  -1.703311  1.801937
C    -2.885161  -1.640140  0.493225
O    -3.796707  -2.339163  0.173971
O    -2.436037  -0.602957  -0.348626
H    -0.214709  -1.974695  2.721869
H    -0.131381  -2.107679  0.970009
H    -2.353042  -2.691657  2.217936
H    -2.591689  -0.976815  2.486818
O    2.329395  0.278834  1.387776
H    0.601319  0.273949  -0.204360
H    -3.006313  -0.605474  -1.146383
Pb    3.951819  -0.005421  3.088446
