20
Energy: -605157.076899 eV PBE+vdW (tier 2 basis)
N    -0.048335  0.986012  1.028522
C    0.129599  0.025888  2.082791
C    1.596077  -0.180150  2.377375
O    2.016722  -1.024323  3.250703
H    -1.021380  1.057109  0.736588
H    0.288383  1.921772  1.254301
H    -0.273092  0.334141  3.080850
C    -0.535726  -1.342381  1.699248
C    -1.583951  -1.887376  2.673362
C    -1.119941  -2.504350  3.954945
O    -1.958062  -3.160460  4.670786
O    0.101849  -2.418725  4.391273
H    0.221143  -2.108794  1.482350
H    -1.033183  -1.168165  0.737136
H    -2.191299  -2.661568  2.176045
H    -2.324799  -1.117035  2.955033
O    2.454202  0.541989  1.752497
H    3.383644  0.353219  2.019249
H    1.260493  -1.561161  3.675836
Pb    -0.505579  -3.788806  6.280495
