20
Energy: -605158.443182 eV PBE+vdW (tier 2 basis)
N    -0.018526  1.072640  0.415234
C    -0.095123  0.375086  1.729341
C    1.276258  -0.216192  2.047699
O    2.178025  -0.373575  1.201216
H    0.324001  2.031234  0.551226
H    -0.957522  1.179018  0.018203
H    -0.291476  1.103493  2.532074
C    -1.246583  -0.668385  1.803055
C    -1.591941  -1.511990  0.551893
C    -0.526524  -2.442566  0.044141
O    0.489233  -2.076034  -0.596695
O    -0.740861  -3.704111  0.303483
H    -2.160923  -0.113220  2.051783
H    -1.058132  -1.324816  2.662792
H    -2.475394  -2.110602  0.806146
H    -1.887261  -0.873440  -0.294934
O    1.417184  -0.534363  3.305106
H    2.306980  -0.908952  3.494576
H    -0.039357  -4.282416  -0.072515
Pb    1.642944  -0.118808  -1.070822
