20
Energy: -605156.038198 eV PBE+vdW (tier 2 basis)
N    0.023623  -1.161386  0.102292
C    -0.300543  -0.273714  1.170208
C    0.690979  0.917897  1.390459
O    0.533687  1.728330  2.283050
H    0.889233  -1.691117  0.189469
H    -0.105246  -0.804790  -0.841509
H    -1.251698  0.225915  0.916854
C    -0.447775  -1.067281  2.502321
C    -1.028348  -0.283874  3.686378
C    -2.503566  -0.187802  3.813531
O    -3.021791  0.499526  4.745747
O    -3.338465  -0.779617  2.992786
H    0.542540  -1.436556  2.803919
H    -1.021194  -1.983501  2.281363
H    -0.643984  0.757853  3.678884
H    -0.668363  -0.689668  4.647087
O    1.676388  0.931513  0.498937
H    2.260261  1.702540  0.667723
H    -2.870136  -1.330809  2.329369
Pb    -4.942004  1.123243  5.674996
