20
Energy: -605158.198246 eV PBE+vdW (tier 2 basis)
N    0.741842  -0.665001  -0.058087
C    0.372081  -0.373055  1.364732
C    1.528192  0.291924  2.101380
O    1.325323  0.771756  3.270375
H    0.022678  -1.471672  -0.419872
H    1.703777  -1.021307  -0.127930
H    -0.456532  0.351769  1.353187
C    -0.089155  -1.658663  2.097648
C    -1.479289  -2.200085  1.718824
C    -1.624778  -2.799073  0.338809
O    -0.927486  -2.494578  -0.642789
O    -2.599927  -3.676951  0.262692
H    -0.119916  -1.420408  3.168698
H    0.676943  -2.440053  1.973849
H    -2.248764  -1.413859  1.805407
H    -1.772549  -2.964838  2.450474
O    2.688152  0.360756  1.562946
H    0.680422  0.163057  -0.661456
H    -2.692925  -4.007794  -0.657190
Pb    3.514914  1.489073  3.455302
