20
Energy: -605157.170471 eV PBE+vdW (tier 2 basis)
N    0.311975  -0.385178  0.096712
C    0.016436  -0.257500  1.530596
C    1.278083  -0.597561  2.289554
O    1.876965  -1.721811  2.208510
H    -0.507108  -0.087892  -0.438795
H    1.054944  0.262203  -0.179645
H    -0.258431  0.759839  1.850974
C    -1.125650  -1.242106  1.971381
C    -1.567551  -2.287698  0.939316
C    -0.597748  -3.278033  0.381649
O    -0.983485  -4.029948  -0.583730
O    0.598552  -3.487747  0.851942
H    -2.010139  -0.634148  2.196904
H    -0.867312  -1.731044  2.921138
H    -2.071164  -1.837126  0.071089
H    -2.362196  -2.902619  1.401568
O    1.752996  0.314080  3.066617
H    2.559058  0.024018  3.554547
H    1.363568  -2.403261  1.622269
Pb    0.878711  -5.299180  -0.685039
