27
Energy: -36631.9894949 eV PBE+vdW (tier 2 basis)
C    -0.141234  1.030828  0.180902
C    -0.112842  1.098459  1.674895
O    0.381569  2.144437  2.235763
H    -0.794405  1.834875  -0.188610
H    -0.507882  0.072014  -0.197999
H    0.861618  1.227661  -0.219215
N    -0.603191  0.064338  2.337037
C    -0.914761  -0.267809  3.735371
C    -0.404927  0.613277  4.869572
O    0.747332  1.159336  4.866224
H    -0.935681  -0.777417  1.783375
H    -2.014429  -0.268301  3.791785
C    -0.432768  -1.726543  3.995653
C    -1.027571  -2.717904  2.975812
O    -1.370322  -2.344019  1.843298
N    -1.123948  -3.993191  3.375050
H    -0.695421  -2.025551  5.018916
H    0.664241  -1.765995  3.917884
H    -0.844235  -4.310775  4.295315
H    -1.452701  -4.688504  2.709685
N    -1.174619  0.731430  5.944951
C    -2.524284  0.204644  6.188769
H    -0.733726  1.225328  6.720824
H    -3.212016  0.493119  5.385423
H    -2.889104  0.641792  7.122290
H    -2.515732  -0.886726  6.299954
Ca    1.699717  2.695616  3.732375
