27
Energy: -36632.2701611 eV PBE+vdW (tier 2 basis)
C    -0.597194  1.247297  -0.195508
C    -0.311045  0.662138  1.144195
O    0.904929  0.459948  1.514181
H    -0.182901  0.586232  -0.969956
H    -0.084060  2.213902  -0.290825
H    -1.667448  1.385375  -0.376765
N    -1.312185  0.351852  1.946654
C    -1.247791  -0.298187  3.246569
C    -2.707749  -0.842319  3.432203
O    -3.595347  -0.344701  2.742982
H    -2.305134  0.465470  1.662833
H    -0.527870  -1.129040  3.206090
C    -0.884580  0.688028  4.407181
C    0.369250  0.331285  5.170619
O    1.469330  0.118863  4.567619
N    0.312796  0.262455  6.491200
H    -1.734863  0.792703  5.092161
H    -0.713837  1.688010  3.980307
H    -0.546157  0.445380  7.001735
H    1.154299  0.075626  7.033866
N    -2.883586  -1.780876  4.376466
C    -4.197257  -2.361426  4.673966
H    -2.069095  -2.221660  4.791036
H    -4.969930  -1.634268  4.409727
H    -4.257632  -2.590392  5.742664
H    -4.359282  -3.279177  4.094452
Ca    2.555341  0.161484  2.723345
