27
Energy: -36632.4745425 eV PBE+vdW (tier 2 basis)
C    -0.511185  -0.742688  0.413282
C    -0.084026  -0.451422  1.810824
O    1.127519  -0.139273  2.068073
H    0.120845  -1.535020  -0.008996
H    -0.343888  0.156690  -0.197234
H    -1.563193  -1.035041  0.335927
N    -0.988077  -0.506825  2.793265
C    -0.709847  -0.168736  4.197516
C    0.123455  -1.297082  4.857909
O    1.402919  -1.166887  4.846967
H    -1.913138  -0.879187  2.581150
H    -0.030407  0.694857  4.180167
C    -1.979460  0.310658  4.929424
C    -3.180404  -0.633767  4.833117
O    -3.016641  -1.837400  4.558237
N    -4.387127  -0.101469  5.055740
H    -2.241235  1.305547  4.542103
H    -1.735669  0.451555  5.993728
H    -4.528179  0.877101  5.279781
H    -5.200603  -0.711861  5.056133
N    -0.494998  -2.335080  5.357001
C    0.142990  -3.481429  5.997546
H    -1.531080  -2.340825  5.179014
H    0.129399  -4.344251  5.318427
H    -0.423572  -3.740629  6.898621
H    1.173439  -3.237455  6.267418
Ca    2.756166  -0.428083  3.398862
