27
Energy: -36633.3102026 eV PBE+vdW (tier 2 basis)
C    1.358875  -1.849107  1.553737
C    0.585103  -0.670136  2.047142
O    1.138647  0.452727  2.192218
H    1.798417  -1.608064  0.576644
H    0.763102  -2.763308  1.465499
H    2.196404  -2.030603  2.242037
N    -0.717170  -0.853484  2.348568
C    -1.664234  0.109135  2.937437
C    -2.090803  1.175134  1.898634
O    -1.253471  1.930617  1.337814
H    -1.082078  -1.789500  2.196388
H    -2.552234  -0.502015  3.135233
C    -1.209053  0.633419  4.352727
C    -0.994853  2.122216  4.582654
O    -0.178062  2.790760  3.897190
N    -1.657510  2.689720  5.586106
H    -0.244780  0.163552  4.593113
H    -1.923374  0.249678  5.089840
H    -1.469643  3.661465  5.825063
H    -2.292547  2.172416  6.184581
N    -3.389645  1.231498  1.621533
C    -4.002613  2.151085  0.661233
H    -4.008249  0.563614  2.073974
H    -4.338468  1.596028  -0.223702
H    -3.267174  2.900909  0.362345
H    -4.865621  2.639433  1.127352
Ca    0.765036  2.572812  1.939639
