27
Energy: -36632.1758964 eV PBE+vdW (tier 2 basis)
C    0.404997  1.574856  0.583691
C    0.126509  0.731673  1.781251
O    1.066576  0.021731  2.294445
H    1.251328  2.243760  0.787992
H    -0.460686  2.165951  0.269848
H    0.710183  0.917851  -0.243838
N    -1.094706  0.726006  2.292535
C    -1.655588  -0.177492  3.292075
C    -3.121519  -0.398151  2.762941
O    -3.566296  0.454477  1.993441
H    -1.876747  1.185599  1.784305
H    -1.083097  -1.114206  3.308462
C    -1.761409  0.442136  4.701654
C    -0.473813  0.748000  5.438457
O    0.591838  0.082586  5.248001
N    -0.505368  1.711376  6.346457
H    -2.313456  -0.260143  5.349307
H    -2.380222  1.349397  4.648463
H    -1.346275  2.253345  6.525272
H    0.304508  1.895281  6.934826
N    -3.821128  -1.462136  3.189562
C    -3.422640  -2.543624  4.081808
H    -4.774111  -1.485710  2.828235
H    -3.745529  -2.361269  5.117123
H    -2.337199  -2.692557  4.061836
H    -3.884597  -3.476275  3.740220
Ca    2.094447  -0.683462  3.947633
