27
Energy: -36633.3101189 eV PBE+vdW (tier 2 basis)
C    1.306775  -1.863118  1.620457
C    0.543405  -0.679683  2.119266
O    1.113516  0.429945  2.298285
H    1.776752  -1.610204  0.660736
H    0.695871  -2.763138  1.497033
H    2.122081  -2.075991  2.326313
N    -0.768364  -0.844496  2.388404
C    -1.709675  0.125679  2.974286
C    -2.086982  1.221605  1.949155
O    -1.227147  1.977102  1.423615
H    -1.147146  -1.770457  2.210686
H    -2.615803  -0.469201  3.135920
C    -1.279281  0.610109  4.411341
C    -1.041074  2.089094  4.678025
O    -0.195373  2.755097  4.025817
N    -1.715652  2.648805  5.677852
H    -0.330682  0.115734  4.664556
H    -2.018980  0.225611  5.122540
H    -1.514295  3.611259  5.942066
H    -2.375201  2.132210  6.249874
N    -3.373159  1.317450  1.631311
C    -3.898162  2.289796  0.667137
H    -4.030274  0.659864  2.040362
H    -4.989640  2.237096  0.682565
H    -3.536493  2.058570  -0.342360
H    -3.577531  3.301394  0.939291
Ca    0.790511  2.562869  2.086464
