27
Energy: -36632.2619578 eV PBE+vdW (tier 2 basis)
C    0.715603  0.401751  0.142581
C    -0.299744  0.289818  1.239265
O    -0.549717  -0.776648  1.820555
H    0.403912  -0.248636  -0.686306
H    1.674324  0.010424  0.505653
H    0.855430  1.419940  -0.235746
N    -0.962193  1.441271  1.596213
C    -2.110856  1.500201  2.497054
C    -1.797475  1.187762  3.978807
O    -2.347641  1.925805  4.880822
H    -0.699109  2.307221  1.137335
H    -2.419418  2.553568  2.495196
C    -3.298497  0.643252  1.957964
C    -4.686657  1.086631  2.368803
O    -4.905336  1.787472  3.408932
N    -5.701103  0.704741  1.608798
H    -3.174707  -0.410290  2.254715
H    -3.238204  0.647254  0.860799
H    -5.567073  0.149212  0.768678
H    -6.655734  0.947086  1.865609
N    -1.016298  0.179244  4.264586
C    -0.601850  -0.227048  5.603996
H    -0.716857  -0.381571  3.424911
H    0.467079  -0.465456  5.581560
H    -1.151123  -1.127196  5.910349
H    -0.782998  0.580040  6.318319
Ca    -4.258758  2.679152  5.235551
