27
Energy: -36632.0269095 eV PBE+vdW (tier 2 basis)
C    0.705213  2.392671  0.804831
C    0.330465  1.664597  2.057401
O    0.341463  2.275293  3.174117
H    0.057979  3.273518  0.693867
H    0.629885  1.779433  -0.099286
H    1.737233  2.759709  0.893979
N    -0.000985  0.373559  1.955737
C    -0.402420  -0.640815  2.953652
C    -1.933416  -0.904666  3.069449
O    -2.296283  -1.689977  3.949784
H    0.096298  -0.003008  1.014674
H    -0.030488  -1.577129  2.510181
C    0.298003  -0.581888  4.343253
C    -0.341172  0.165796  5.506949
O    0.169909  1.257684  5.940266
N    -1.375949  -0.375730  6.108473
H    1.317308  -0.201106  4.215140
H    0.397825  -1.626435  4.667057
H    -1.838160  -1.180081  5.655187
H    -1.786591  0.064654  6.929120
N    -2.747893  -0.324472  2.174922
C    -4.183466  -0.605849  2.100520
H    -2.350084  0.283951  1.468321
H    -4.755807  0.325007  2.186039
H    -4.447208  -1.276964  2.921865
H    -4.423012  -1.092010  1.147166
Ca    0.740356  3.076256  5.086334
