27
Energy: -36632.2213457 eV PBE+vdW (tier 2 basis)
C    0.249870  0.213231  0.016592
C    0.046146  0.148471  1.498901
O    0.854209  0.554275  2.329690
H    1.065849  -0.473998  -0.249374
H    0.581485  1.220954  -0.260414
H    -0.638365  -0.059856  -0.563813
N    -1.146583  -0.448230  1.945686
C    -1.353322  -0.422906  3.376419
C    -2.281471  -1.522749  3.882192
O    -2.798742  -1.420779  5.048475
H    -1.953489  -0.382544  1.327217
H    -0.358953  -0.676150  3.789869
C    -1.715498  0.995943  3.933097
C    -0.969348  1.280469  5.214636
O    -1.507113  1.028193  6.347244
N    0.264294  1.734963  5.124536
H    -2.793169  1.104110  4.104804
H    -1.427751  1.730687  3.173994
H    0.716268  1.810598  4.209919
H    0.817297  1.910835  5.961206
N    -2.468914  -2.579050  3.118103
C    -3.243691  -3.771662  3.459271
H    -1.967035  -2.570311  2.228752
H    -2.567074  -4.600276  3.704840
H    -3.857915  -4.056307  2.598259
H    -3.889355  -3.557412  4.313711
Ca    -2.894630  -0.458498  6.940187
