27
Energy: -36632.6701401 eV PBE+vdW (tier 2 basis)
C    0.831549  0.068751  0.577582
C    0.368796  0.853937  1.751659
O    1.049369  1.790296  2.248921
H    1.639496  -0.590328  0.938606
H    1.273488  0.722989  -0.181874
H    0.058361  -0.573188  0.143508
N    -0.828563  0.554774  2.358500
C    -2.111432  0.436589  1.660446
C    -2.148125  1.414600  0.453399
O    -1.501739  2.499292  0.492561
H    -0.894553  0.956096  3.292443
H    -2.265177  -0.590580  1.295721
C    -3.249134  0.738289  2.665401
C    -3.236616  2.111241  3.349051
O    -2.240807  2.887926  3.316854
N    -4.328498  2.439922  4.027185
H    -3.214107  -0.026153  3.459541
H    -4.216528  0.598459  2.163601
H    -5.139146  1.830772  4.088404
H    -4.355348  3.312306  4.551397
N    -2.883001  1.069845  -0.591466
C    -3.053679  1.907658  -1.785441
H    -3.337503  0.160141  -0.583688
H    -2.082594  2.090324  -2.260419
H    -3.508103  2.867582  -1.514826
H    -3.706827  1.381020  -2.485488
Ca    -0.427146  3.491669  2.175895
