27
Energy: -36632.173608 eV PBE+vdW (tier 2 basis)
C    -1.958902  -2.087822  -1.242514
C    -1.649217  -2.081707  0.219131
O    -1.560894  -3.183537  0.854466
H    -1.940138  -1.093449  -1.700105
H    -2.960651  -2.522224  -1.378415
H    -1.257125  -2.745011  -1.771800
N    -1.478590  -0.900270  0.822709
C    -1.387973  -0.549525  2.250695
C    -0.124898  -1.062432  2.979574
O    0.415828  -2.192005  2.707213
H    -1.549699  -0.094347  0.206201
H    -1.294572  0.544309  2.247652
C    -2.685361  -0.849612  3.042560
C    -2.902642  0.241849  4.114352
O    -2.013710  1.063560  4.372833
N    -4.092962  0.235871  4.732090
H    -2.662805  -1.836670  3.525520
H    -3.534971  -0.856483  2.345395
H    -4.843208  -0.398430  4.485225
H    -4.278257  0.939596  5.441806
N    0.318790  -0.271768  3.926625
C    1.455162  -0.530713  4.804295
H    -0.315047  0.527813  4.142430
H    1.099103  -0.746969  5.819971
H    2.083401  0.366620  4.839451
H    2.039456  -1.372565  4.426337
Ca    -0.009115  -4.102078  1.957301
