27
Energy: -36632.1748377 eV PBE+vdW (tier 2 basis)
C    -0.160597  1.672045  -0.322182
C    0.054343  1.105848  1.039034
O    1.208744  1.199572  1.599976
H    0.083990  2.743039  -0.316307
H    -1.185929  1.536524  -0.679401
H    0.533437  1.188353  -1.024028
N    -0.946726  0.510389  1.659774
C    -0.924288  -0.192782  2.934035
C    -2.177347  -1.132049  2.820952
O    -2.987410  -0.895962  1.926126
H    -1.864096  0.346249  1.195578
H    -0.003048  -0.787620  3.008489
C    -1.064110  0.756353  4.166653
C    0.115808  0.782415  5.112498
O    1.311057  0.851011  4.684229
N    -0.120465  0.770359  6.414896
H    -1.983628  0.528348  4.720546
H    -1.188935  1.787350  3.799915
H    -1.063417  0.729641  6.790116
H    0.647941  0.849817  7.078398
N    -2.314211  -2.128064  3.714407
C    -1.415341  -2.527456  4.788288
H    -3.171079  -2.666007  3.594092
H    -1.654834  -2.027321  5.738389
H    -0.368902  -2.328881  4.526241
H    -1.507465  -3.607376  4.944162
Ca    2.659508  1.238206  3.068124
