27
Energy: -36632.0934762 eV PBE+vdW (tier 2 basis)
C    -2.514084  -1.432153  -0.621279
C    -1.869985  -1.711137  0.695004
O    -1.683943  -2.922269  1.064202
H    -3.512160  -1.893228  -0.628185
H    -1.935292  -1.913986  -1.420894
H    -2.610254  -0.363878  -0.837991
N    -1.503489  -0.677998  1.450618
C    -1.066092  -0.623501  2.863590
C    0.216605  -1.398353  3.185835
O    0.276435  -2.671635  3.158055
H    -1.852531  0.234899  1.151387
H    -0.845314  0.443050  3.001882
C    -2.217434  -0.938705  3.836438
C    -3.279007  0.179388  3.682424
O    -3.146190  1.034930  2.807323
N    -4.316983  0.133494  4.537438
H    -1.839066  -0.969522  4.869224
H    -2.672464  -1.917320  3.624568
H    -4.384446  -0.536039  5.294087
H    -5.026182  0.858908  4.479317
N    1.255862  -0.675814  3.566749
C    2.549800  -1.203802  4.002205
H    1.155505  0.336931  3.549293
H    2.434003  -2.244424  4.314007
H    2.909350  -0.603856  4.844704
H    3.277509  -1.140268  3.182772
Ca    -0.586153  -4.322712  2.143229
