27
Energy: -36632.6049104 eV PBE+vdW (tier 2 basis)
C    -0.159410  1.125989  0.286760
C    -0.260565  0.699999  1.709279
O    0.677315  0.911900  2.530159
H    0.046634  2.204554  0.252825
H    -1.060107  0.908883  -0.296511
H    0.702657  0.625729  -0.176156
N    -1.399800  0.071641  2.125909
C    -1.448994  -0.326923  3.518782
C    -0.791190  -1.696471  3.791146
O    0.376299  -1.677604  4.283985
H    -2.140407  -0.119780  1.457190
H    -0.716561  0.375223  3.899708
C    -2.599490  0.078000  4.440429
C    -1.941956  0.597339  5.752184
O    -0.700966  0.820927  5.818225
N    -2.740173  0.812726  6.786695
H    -3.316562  -0.720802  4.669229
H    -3.166592  0.912028  3.999084
H    -3.741916  0.652747  6.740138
H    -2.360678  1.186002  7.654249
N    -1.436820  -2.813686  3.497309
C    -0.900658  -4.167725  3.670234
H    -2.372739  -2.734045  3.106862
H    0.099282  -4.100837  4.104229
H    -0.849345  -4.669856  2.696880
H    -1.556565  -4.739559  4.336878
Ca    1.254304  0.332602  4.659299
