27
Energy: -36632.2821416 eV PBE+vdW (tier 2 basis)
C    0.011536  3.392400  1.383116
C    0.185949  2.304387  2.387442
O    1.296774  2.194548  3.023471
H    0.227093  4.364187  1.846330
H    -0.991389  3.410383  0.945819
H    0.750269  3.250478  0.580803
N    -0.812063  1.461130  2.601589
C    -0.802024  0.208062  3.349797
C    -1.733678  -0.716722  2.479481
O    -2.561515  -0.157308  1.761495
H    -1.651526  1.480019  1.990999
H    0.221729  -0.188390  3.401665
C    -1.438089  0.317046  4.751579
C    -0.710504  1.131032  5.801572
O    0.549800  1.293682  5.782813
N    -1.432260  1.631964  6.792382
H    -1.526488  -0.701003  5.168708
H    -2.469242  0.685154  4.648670
H    -2.440178  1.509730  6.837433
H    -0.982468  2.107133  7.571974
N    -1.583495  -2.040611  2.627440
C    -2.411243  -3.022073  1.920002
H    -0.815010  -2.391847  3.189490
H    -2.789940  -3.766403  2.629132
H    -1.826165  -3.525776  1.140845
H    -3.250152  -2.496523  1.456528
Ca    2.338277  1.875320  4.785424
