27
Energy: -36632.1731141 eV PBE+vdW (tier 2 basis)
C    -0.131492  1.802457  -0.268356
C    0.073644  1.272077  1.108841
O    1.199640  1.449922  1.705414
H    0.045087  2.886694  -0.273834
H    -1.133710  1.596413  -0.656184
H    0.614530  1.352645  -0.938748
N    -0.907294  0.620789  1.705487
C    -0.886918  -0.063280  2.990500
C    -2.064023  -1.090649  2.842558
O    -2.878075  -0.899380  1.941200
H    -1.798345  0.401462  1.215339
H    0.071533  -0.585793  3.116771
C    -1.157690  0.886661  4.200673
C    -0.019953  1.048415  5.184042
O    1.181400  1.201053  4.797227
N    -0.305712  1.067272  6.476714
H    -2.067348  0.576220  4.730507
H    -1.374902  1.893585  3.810368
H    -1.256293  0.963106  6.819390
H    0.426588  1.237996  7.163381
N    -2.137189  -2.103633  3.724738
C    -1.183826  -2.471119  4.764539
H    -2.945529  -2.707393  3.586710
H    -1.406984  -3.491300  5.090394
H    -1.253476  -1.820479  5.648577
H    -0.152155  -2.471308  4.388236
Ca    2.574491  1.636565  3.234516
