27
Energy: -36632.060206 eV PBE+vdW (tier 2 basis)
C    -1.651835  1.667924  0.116213
C    -1.144758  1.316291  1.479356
O    -0.167614  1.963285  1.982548
H    -0.836958  1.522238  -0.607264
H    -1.926002  2.730699  0.083749
H    -2.514018  1.070890  -0.198012
N    -1.746680  0.317774  2.130283
C    -1.405150  -0.339647  3.414514
C    -2.665487  -1.142851  3.844100
O    -3.525707  -0.604904  4.555137
H    -2.519282  -0.113460  1.626356
H    -0.571708  -1.030693  3.219550
C    -0.935182  0.584577  4.563866
C    -1.617227  1.932734  4.753696
O    -0.917100  3.001059  4.638797
N    -2.891941  1.958492  5.054007
H    0.137699  0.770901  4.454886
H    -1.052888  0.011425  5.495733
H    -3.396078  1.043965  5.049540
H    -3.368890  2.840102  5.231774
N    -2.786854  -2.400333  3.388180
C    -1.823343  -3.213397  2.641731
H    -3.633547  -2.866276  3.713968
H    -1.001251  -3.560113  3.282506
H    -1.417207  -2.674373  1.777327
H    -2.348623  -4.092959  2.257988
Ca    0.527439  3.554603  3.207965
