15
Energy: -564255.181443 eV PBE+vdW (tier 2 basis)
N    -0.184543  -0.019559  -0.077998
C    -0.071422  0.058003  1.281204
C    1.343742  0.118538  1.839139
O    1.579713  -0.178860  3.045595
H    -0.979573  0.402348  -0.556707
H    0.423429  -0.606959  -0.648328
H    -0.658273  0.886368  1.705620
C    -0.816849  -1.343517  2.060534
O    -0.650436  -1.092711  3.383168
H    -0.261654  -2.204418  1.653332
H    -1.854139  -1.290729  1.705624
H    0.689313  -0.625911  3.457191
O    2.262767  0.515696  1.032401
H    3.157272  0.569491  1.450079
Hg    -1.487146  -2.373575  5.088929
