15
Energy: -564255.450627 eV PBE+vdW (tier 2 basis)
N    -0.321135  -1.043286  0.078894
C    -0.059073  -0.341765  1.406061
C    1.455210  -0.133481  1.597008
O    2.033050  -0.314719  2.657923
H    -1.313366  -0.966919  -0.196873
H    0.246173  -0.622988  -0.677061
H    -0.503383  0.663002  1.308712
C    -0.739911  -1.062853  2.583570
O    -0.227670  -2.329898  2.901507
H    -1.805204  -1.274583  2.340216
H    -0.800312  -0.363480  3.434285
H    -0.089981  -2.049158  0.127170
O    2.017997  0.301665  0.480220
H    2.979139  0.480503  0.596205
Hg    1.435469  -2.344038  4.156161
