15
Energy: -564255.096683 eV PBE+vdW (tier 2 basis)
N    0.376599  -2.079657  0.559614
C    -0.043632  -0.651956  0.834373
C    1.276963  0.049281  1.153855
O    2.291928  -0.639832  1.186506
H    0.646693  -2.215161  -0.424700
H    1.204187  -2.317180  1.142675
H    -0.480631  -0.241702  -0.087819
C    -1.049457  -0.530370  1.987922
O    -2.236560  -1.296528  1.644610
H    -1.335381  0.530225  2.069965
H    -0.629772  -0.871794  2.946536
H    -2.900513  -1.243249  2.364424
O    1.178168  1.334472  1.369051
H    2.051275  1.757346  1.544891
Hg    -1.421867  -3.405893  0.886097
