15
Energy: -564255.267126 eV PBE+vdW (tier 2 basis)
N    0.528037  -1.408521  0.088279
C    -0.301469  -0.320753  0.725806
C    0.434347  -0.022237  2.064438
O    1.478910  -0.586358  2.310811
H    0.823832  -1.184521  -0.871450
H    1.375087  -1.476174  0.721256
H    -0.233479  0.586220  0.102685
C    -1.809545  -0.630688  0.837849
O    -1.871945  -1.711555  1.769092
H    -2.229998  -0.895917  -0.144067
H    -2.277965  0.292060  1.213008
H    0.065866  -2.327412  0.080555
O    -0.199657  0.888282  2.778774
H    0.319583  1.118261  3.581281
Hg    -3.680604  -2.349687  2.490683
