15
Energy: -564255.163469 eV PBE+vdW (tier 2 basis)
N    0.352529  -0.207079  0.021083
C    0.315962  0.156592  1.432909
C    1.599076  -0.255611  2.239851
O    2.472576  -1.006275  1.797502
H    0.367097  0.592567  -0.620710
H    -0.433997  -0.856202  -0.179179
H    0.273227  1.255220  1.510769
C    -0.952475  -0.500970  2.090766
O    -1.240321  -1.635145  1.304575
H    -1.761147  0.250812  2.043499
H    -0.781398  -0.763660  3.146262
H    -2.014749  -2.120009  1.647293
O    1.736247  0.201480  3.449792
H    1.047746  0.832785  3.748563
Hg    2.237867  -1.504289  -0.455875
