15
Energy: -564254.841406 eV PBE+vdW (tier 2 basis)
N    -0.015353  1.037362  2.081140
C    0.533756  0.482684  3.285672
C    1.843374  1.270642  3.623734
O    2.684007  0.995474  4.513648
H    -0.948297  1.448692  2.126606
H    0.171529  0.565618  1.194490
H    -0.151215  0.687032  4.126884
C    0.740901  -1.044608  3.191968
O    0.787021  -1.559244  4.560360
H    1.650440  -1.317919  2.637666
H    -0.128831  -1.500854  2.695141
H    0.541750  -2.509898  4.570712
O    2.059966  2.323875  2.920800
H    1.309988  2.379336  2.246135
Hg    2.663582  -0.826992  5.833738
