15
Energy: -564255.29903 eV PBE+vdW (tier 2 basis)
N    0.578357  -0.669725  -0.354434
C    -0.432534  -0.426634  0.748193
C    0.418721  -0.321193  2.031123
O    1.618768  -0.232537  1.988442
H    0.365308  -0.146212  -1.215968
H    1.506314  -0.362671  0.021442
H    -0.891824  0.556097  0.561864
C    -1.547970  -1.503984  0.762168
O    -2.767612  -1.090458  1.275881
H    -1.190907  -2.476463  1.147570
H    -1.854790  -1.701711  -0.296089
H    0.675347  -1.666564  -0.603853
O    -0.327862  -0.319995  3.153388
H    0.271368  -0.205260  3.927209
Hg    -3.139684  -0.946693  3.318063
