20
Energy: -14935.6345618 eV PBE+vdW (tier 2 basis)
N    0.152959  0.046864  -0.058423
C    -0.118860  -0.045734  1.370513
C    1.212559  -0.200136  2.092549
O    2.113178  -0.919532  1.713850
H    -0.697867  -0.105637  -0.599822
H    0.824739  -0.677684  -0.320769
H    -0.584366  0.891536  1.710562
C    -1.040663  -1.244073  1.779801
C    -1.281766  -1.394426  3.240884
N    -2.042099  -0.514422  3.990468
C    -0.804377  -2.302900  4.163392
C    -1.989269  -0.924371  5.295325
N    -1.249151  -2.006711  5.432521
H    -0.575366  -2.167379  1.407362
H    -1.989228  -1.121015  1.230826
H    -0.162444  -3.156912  3.970579
H    -2.510545  -0.401495  6.090850
H    -2.536230  0.296403  3.637723
O    1.263230  0.527171  3.234331
H    2.109564  0.300451  3.668479
