20
Energy: -14935.5924638 eV PBE+vdW (tier 2 basis)
N    0.188160  0.626148  2.428328
C    1.145358  -0.467314  2.407837
C    2.158722  -0.489115  1.259253
O    3.307254  -0.869359  1.357328
H    -0.398647  0.613910  1.593496
H    0.662003  1.528371  2.449413
H    1.760404  -0.401107  3.317642
C    0.409340  -1.838055  2.413381
C    -0.433588  -2.067017  3.617875
N    0.089304  -2.288644  4.879143
C    -1.799083  -2.103678  3.803359
C    -0.960689  -2.445613  5.743549
N    -2.118547  -2.341185  5.121448
H    1.162465  -2.634411  2.303329
H    -0.234518  -1.892481  1.523268
H    -2.567831  -1.969011  3.048894
H    -0.818715  -2.635550  6.802686
H    1.073315  -2.336351  5.115887
O    1.621879  -0.061107  0.080250
H    2.332415  -0.149430  -0.584367
