20
Energy: -14935.575871 eV PBE+vdW (tier 2 basis)
N    1.089564  1.651245  3.230646
C    1.202982  0.276664  2.735924
C    0.780206  0.290954  1.268364
O    1.508599  0.155251  0.315039
H    1.588084  1.753976  4.113999
H    -0.732019  0.582381  0.176805
H    2.267441  0.010771  2.718249
C    0.434021  -0.786960  3.570527
C    0.532072  -2.184814  3.061176
N    -0.241070  -2.672976  2.022049
C    1.348661  -3.243425  3.403594
C    0.135326  -3.968409  1.795110
N    1.095839  -4.344472  2.616958
H    -0.618905  -0.472944  3.651878
H    0.849284  -0.757263  4.588090
H    -0.954217  -2.151720  1.525003
H    2.102575  -3.266403  4.184629
H    -0.324029  -4.582040  1.026793
O    -0.572558  0.498336  1.137080
H    0.113145  1.898848  3.396087
