20
Energy: -14935.515616 eV PBE+vdW (tier 2 basis)
N    0.956406  1.665176  3.358377
C    1.143060  0.311346  2.827136
C    1.068831  0.406438  1.302452
O    1.990002  0.236881  0.538109
H    1.193219  1.695043  4.349727
H    -0.142180  0.808805  -0.083789
H    2.176664  0.013169  3.045166
C    0.167718  -0.743734  3.395934
C    0.374283  -2.134946  2.885724
N    -0.577711  -3.124655  3.059027
C    1.409853  -2.770680  2.229085
C    -0.085486  -4.280583  2.515271
N    1.114505  -4.098848  2.003952
H    -0.860364  -0.411428  3.176631
H    0.275059  -0.719276  4.494686
H    -1.479717  -3.006264  3.504772
H    2.347066  -2.341940  1.890542
H    -0.645374  -5.210445  2.520015
O    -0.189544  0.739074  0.889184
H    -0.016289  1.959868  3.263000
