20
Energy: -14935.7135089 eV PBE+vdW (tier 2 basis)
N    -0.847492  -0.840981  0.503091
C    -0.293820  0.100073  1.490381
C    1.208606  0.309354  1.337728
O    1.848148  1.079549  2.018818
H    -0.472925  -0.654580  -0.426580
H    2.714865  -0.230547  0.354676
H    -0.719566  1.117394  1.401692
C    -0.590211  -0.401370  2.926261
C    0.107745  -1.671696  3.280723
N    0.097089  -2.784794  2.462281
C    0.854729  -2.051083  4.377874
C    0.832195  -3.755684  3.079246
N    1.297192  -3.348473  4.247503
H    -1.685401  -0.508050  3.013449
H    -0.290232  0.376545  3.639063
H    -0.286121  -2.756920  1.517945
H    1.094746  -1.454006  5.252186
H    0.996325  -4.733183  2.636965
O    1.760923  -0.443193  0.347321
H    -1.859795  -0.723354  0.452376
