20
Energy: -14935.6006054 eV PBE+vdW (tier 2 basis)
N    0.553551  0.804892  2.346144
C    1.217378  -0.349706  1.757306
C    1.565436  -0.106473  0.296987
O    2.545237  -0.543892  -0.265678
H    0.345849  0.628884  3.329077
H    -0.319859  1.019689  1.864661
H    2.176322  -0.490118  2.273893
C    0.447465  -1.716103  1.833746
C    0.109066  -2.107940  3.229261
N    -1.072626  -1.747692  3.856262
C    0.810759  -2.794595  4.200703
C    -1.033507  -2.232248  5.135799
N    0.096831  -2.868191  5.375177
H    1.077476  -2.494366  1.380256
H    -0.464001  -1.642763  1.219230
H    1.793209  -3.246602  4.106102
H    -1.850780  -2.095032  5.836581
H    -1.839642  -1.245891  3.424558
O    0.598003  0.606177  -0.349726
H    0.892832  0.675970  -1.278336
