20
Energy: -14935.7358247 eV PBE+vdW (tier 2 basis)
N    0.868175  -0.999064  0.313003
C    0.054348  -0.200329  1.232666
C    1.021282  0.719766  1.985466
O    1.589966  0.469043  3.035162
H    1.228568  -1.824345  0.796791
H    1.873326  2.389227  1.841638
H    -0.574055  0.461889  0.621896
C    -0.870797  -1.001209  2.193406
C    -0.264971  -2.221821  2.802496
N    0.811136  -2.198224  3.668384
C    -0.581851  -3.561548  2.680973
C    1.089964  -3.488477  4.015094
N    0.260240  -4.341898  3.439838
H    -1.740549  -1.330053  1.607644
H    -1.259048  -0.320616  2.969716
H    1.329536  -1.346594  3.884353
H    -1.384608  -3.997894  2.093687
H    1.904054  -3.748531  4.684245
O    1.205440  1.888659  1.332031
H    0.296843  -1.335981  -0.460489
