20
Energy: -14935.5945287 eV PBE+vdW (tier 2 basis)
N    -0.339048  0.175644  0.065019
C    0.009724  -0.060195  1.457747
C    1.527455  0.039107  1.731838
O    2.362014  -0.041730  0.859240
H    -0.246144  1.168778  -0.150229
H    0.351138  -0.292724  -0.528450
H    -0.502792  0.695834  2.073563
C    -0.523525  -1.455765  1.893188
C    -0.309367  -1.770257  3.337555
N    0.590331  -2.717661  3.786758
C    -0.825033  -1.217206  4.497575
C    0.577470  -2.697838  5.154404
N    -0.270825  -1.800310  5.616633
H    -0.049766  -2.221137  1.259488
H    -1.593277  -1.468326  1.646008
H    -1.586233  -0.446978  4.580083
H    1.200826  -3.354349  5.752617
H    1.185108  -3.290320  3.198634
O    1.902078  0.212356  3.026767
H    1.117425  0.133011  3.608935
