20
Energy: -14935.633838 eV PBE+vdW (tier 2 basis)
N    0.002408  -0.473182  -0.292355
C    -0.067203  -0.130266  1.122143
C    1.311756  0.098679  1.733816
O    1.570868  -0.000437  2.914930
H    -0.943608  -0.575786  -0.662831
H    0.476173  0.251398  -0.829102
H    -0.597012  0.830261  1.322659
C    -0.816920  -1.238273  1.895240
C    -2.256271  -1.324087  1.519180
N    -3.222364  -0.468457  2.020659
C    -2.943374  -2.125192  0.628787
C    -4.415131  -0.791246  1.430798
N    -4.279286  -1.789607  0.580770
H    -0.693433  -1.058351  2.972013
H    -0.331272  -2.196466  1.666746
H    -2.538249  -2.933982  0.028561
H    -5.339130  -0.271427  1.663499
H    -3.072700  0.244828  2.724750
O    2.226555  0.502560  0.811973
H    3.053017  0.662421  1.308139
