20
Energy: -14935.645495 eV PBE+vdW (tier 2 basis)
N    1.087554  0.458406  3.422284
C    0.551779  0.051165  2.136329
C    -0.273133  1.195040  1.563085
O    -0.276427  2.331883  1.983142
H    1.871715  -0.130053  3.696325
H    -1.442315  1.617597  0.152975
H    1.327952  -0.135273  1.359519
C    -0.266809  -1.259756  2.286011
C    0.583502  -2.411786  2.700089
N    1.342961  -3.149890  1.807375
C    0.882400  -2.958282  3.931852
C    2.038011  -4.087093  2.524100
N    1.782104  -3.995538  3.814168
H    -0.783565  -1.477398  1.340931
H    -1.032993  -1.089339  3.053633
H    1.352182  -3.035062  0.800651
H    0.488578  -2.651967  4.895636
H    2.702957  -4.804546  2.053716
O    -0.987103  0.812397  0.466670
H    1.382650  1.433494  3.398508
