20
Energy: -14935.5967559 eV PBE+vdW (tier 2 basis)
N    -0.317770  -2.312536  3.098626
C    0.325552  -1.747781  1.920875
C    0.803555  -0.320039  2.157076
O    1.624925  0.239708  1.461863
H    -1.087918  -1.728454  3.422568
H    -0.672748  -3.249015  2.908237
H    1.237748  -2.329175  1.718021
C    -0.505716  -1.750640  0.590373
C    -1.721346  -0.892103  0.618103
N    -2.919883  -1.270786  1.199902
C    -1.946093  0.402034  0.191968
C    -3.788652  -0.218106  1.092434
N    -3.226662  0.810731  0.488803
H    -0.763621  -2.798755  0.368973
H    0.150761  -1.407831  -0.220815
H    -1.242675  1.054851  -0.315482
H    -4.807063  -0.262886  1.465001
H    -3.119429  -2.176876  1.606205
O    0.167182  0.287467  3.190152
H    0.493854  1.208193  3.203118
