20
Energy: -14935.8013283 eV PBE+vdW (tier 2 basis)
N    -1.453903  -0.744129  1.515607
C    -0.192942  -0.015359  1.698562
C    0.679193  -0.243628  0.469497
O    0.316012  -0.812366  -0.539094
H    -1.638989  -0.845062  0.515474
H    -2.228898  -0.235688  1.936938
H    -0.338452  1.081192  1.752479
C    0.519351  -0.452720  3.003830
C    0.981810  -1.870427  2.990117
N    0.150565  -2.921287  2.654981
C    2.197711  -2.461549  3.269198
C    0.886454  -4.068633  2.730621
N    2.129371  -3.827670  3.109845
H    -0.190374  -0.275322  3.829264
H    1.383369  0.198473  3.185116
H    3.115013  -1.970977  3.580246
H    0.471695  -5.044369  2.498698
H    -0.791814  -2.773125  2.296770
O    1.912769  0.296794  0.617789
H    2.400569  0.095083  -0.203975
