20
Energy: -14935.757394 eV PBE+vdW (tier 2 basis)
N    -0.664696  -0.297651  0.685854
C    0.003933  -0.694479  1.933500
C    0.686079  0.433453  2.707833
O    0.734811  0.519478  3.915444
H    -0.016825  0.235052  0.101995
H    -1.448782  0.323746  0.886646
H    -0.753054  -1.106717  2.613862
C    1.049770  -1.802664  1.645528
C    0.441477  -3.095111  1.217828
N    -0.528329  -3.180163  0.238544
C    0.664012  -4.401480  1.605176
C    -0.849521  -4.499360  0.091153
N    -0.139163  -5.267666  0.897809
H    1.643566  -1.983561  2.551425
H    1.748852  -1.417326  0.882413
H    1.364928  -4.759540  2.353032
H    -1.602928  -4.841742  -0.611058
H    -0.962149  -2.352670  -0.168762
O    1.284756  1.338147  1.876546
H    1.724264  1.988255  2.458233
