20
Energy: -14935.6591403 eV PBE+vdW (tier 2 basis)
N    1.813941  -0.874284  0.943856
C    0.526154  -0.311606  1.367471
C    0.476010  1.205252  1.226882
O    -0.267059  1.934465  1.846330
H    1.676745  -1.827789  0.609734
H    1.201042  2.639352  0.245724
H    -0.314648  -0.664163  0.734208
C    0.195637  -0.707207  2.826393
C    0.176831  -2.180358  3.048436
N    1.328193  -2.940265  3.158974
C    -0.848828  -3.095700  3.176966
C    0.953470  -4.242940  3.340555
N    -0.360137  -4.370709  3.357684
H    -0.783741  -0.289848  3.088655
H    0.935534  -0.227842  3.485820
H    2.269904  -2.574133  3.069645
H    -1.915645  -2.894808  3.160344
H    1.673701  -5.046264  3.458931
O    1.337666  1.672532  0.277339
H    2.197232  -0.337682  0.167055
