20
Energy: -14935.719395 eV PBE+vdW (tier 2 basis)
N    -0.535659  -0.090002  0.305163
C    0.153685  -0.106490  1.604692
C    1.657018  -0.398402  1.385680
O    2.043727  -0.249362  0.104068
H    -1.335234  0.541448  0.318462
H    -0.890924  -1.016837  0.064131
H    0.115858  0.922051  1.997623
C    -0.441570  -1.044446  2.677359
C    -1.861002  -0.717273  3.003976
N    -2.935661  -1.457314  2.541813
C    -2.443081  0.328274  3.693416
C    -4.083775  -0.849379  2.975666
N    -3.817328  0.238814  3.670683
H    0.191126  -0.976660  3.571872
H    -0.355844  -2.086851  2.329180
H    -2.875719  -2.331030  2.032061
H    -1.938683  1.137622  4.212351
H    -5.070925  -1.245365  2.760058
O    2.415202  -0.702204  2.278621
H    1.197790  -0.022595  -0.372875
