20
Energy: -14935.6166253 eV PBE+vdW (tier 2 basis)
N    -0.858741  -0.847620  0.664943
C    -0.339257  0.094958  1.679862
C    1.040372  0.640898  1.266540
O    1.168209  1.674441  0.650380
H    -1.159631  -0.321910  -0.156397
H    1.868636  -0.897947  2.115470
H    -1.000595  0.970040  1.675106
C    -0.403601  -0.527615  3.095696
C    0.267170  -1.853235  3.244827
N    -0.227371  -3.011707  2.672481
C    1.413934  -2.262616  3.906001
C    0.618763  -4.033680  3.001592
N    1.622421  -3.614730  3.747563
H    -1.469166  -0.620948  3.354321
H    0.037325  0.173129  3.818530
H    -1.049549  -3.048447  2.078013
H    2.080571  -1.652417  4.508732
H    0.455285  -5.054634  2.671388
O    2.123689  -0.132131  1.548955
H    -0.112466  -1.465828  0.338996
