20
Energy: -14935.6652973 eV PBE+vdW (tier 2 basis)
N    -1.026981  -0.540468  0.852130
C    -0.229404  0.209092  1.846480
C    1.188592  0.361205  1.248747
O    1.336901  0.903291  0.175484
H    -2.020059  -0.346266  0.989554
H    1.948414  -0.681883  2.681790
H    -0.575810  1.254995  1.952725
C    -0.339110  -0.457352  3.231209
C    0.303818  -1.803272  3.316778
N    0.095868  -2.781284  2.363702
C    1.184349  -2.374852  4.220091
C    0.845120  -3.865287  2.718530
N    1.510504  -3.657411  3.840813
H    -1.411869  -0.521791  3.481895
H    0.105895  0.197904  3.993254
H    -0.432152  -2.593537  1.509127
H    1.582091  -1.932022  5.128737
H    0.873025  -4.774308  2.126307
O    2.246789  -0.087651  1.952166
H    -0.784980  -0.189103  -0.077518
