20
Energy: -14935.7333211 eV PBE+vdW (tier 2 basis)
N    -0.595270  0.021717  0.393059
C    0.177464  0.049045  1.644571
C    1.637138  -0.353646  1.357540
O    1.793607  -0.977692  0.171353
H    -0.516944  0.911725  -0.099728
H    -1.588568  -0.113491  0.590289
H    0.199601  1.041648  2.121046
C    -0.398880  -0.964607  2.665693
C    -1.839946  -0.731505  2.976836
N    -2.857454  -1.520834  2.463227
C    -2.499815  0.238191  3.705807
C    -4.047666  -1.013099  2.909698
N    -3.863332  0.056300  3.659154
H    0.210259  -0.894788  3.575847
H    -0.259138  -1.984004  2.272775
H    -2.730226  -2.363068  1.913345
H    -2.057515  1.055828  4.266352
H    -5.003497  -1.462724  2.660766
O    2.542196  -0.169928  2.138830
H    0.883986  -0.946069  -0.235461
