20
Energy: -14935.8930509 eV PBE+vdW (tier 2 basis)
N    0.195994  0.429165  0.164575
C    0.117128  -0.061822  1.554089
C    1.450646  -0.785639  1.875607
O    2.414339  -0.532552  0.984658
H    -0.290201  1.316920  0.052585
H    -0.228649  -0.235301  -0.484525
H    0.100114  0.820014  2.214178
C    -1.130938  -0.925715  1.869638
C    -1.560364  -0.948770  3.299193
N    -0.762284  -1.390765  4.332633
C    -2.750415  -0.588491  3.902008
C    -1.482674  -1.273252  5.484896
N    -2.695381  -0.795222  5.260855
H    -0.959670  -1.947840  1.490162
H    -1.970288  -0.511670  1.293537
H    0.213732  -1.662860  4.194284
H    -3.644521  -0.200743  3.422284
H    -1.078259  -1.546088  6.454376
O    1.629388  -1.498504  2.846012
H    1.949221  0.038405  0.302360
