20
Energy: -14935.7442424 eV PBE+vdW (tier 2 basis)
N    -0.237272  -1.125818  0.341622
C    -0.121368  -0.096371  1.384238
C    1.293421  0.536157  1.318069
O    1.739742  1.255723  2.183532
H    0.017961  -2.042473  0.716605
H    1.333760  -0.386001  -0.287068
H    -0.803223  0.727474  1.119088
C    -0.452947  -0.553401  2.823622
C    0.237632  -1.822645  3.207075
N    -0.428096  -3.031683  3.338110
C    1.561439  -2.136873  3.449686
C    0.497183  -3.987250  3.661860
N    1.710967  -3.477208  3.729337
H    -1.542216  -0.676868  2.916182
H    -0.161027  0.258870  3.503097
H    -1.430093  -3.164715  3.265889
H    2.408678  -1.458780  3.441959
H    0.227937  -5.024119  3.836209
O    1.953120  0.237683  0.186643
H    -1.180598  -1.188700  -0.035754
