20
Energy: -14935.5884829 eV PBE+vdW (tier 2 basis)
N    -0.364147  0.117668  0.074343
C    0.039136  -0.051929  1.463620
C    1.577162  -0.035470  1.662561
O    2.345007  0.233116  0.767325
H    -0.113759  -0.721233  -0.455101
H    0.201586  0.860293  -0.342074
H    -0.336190  0.823159  2.025623
C    -0.644233  -1.318968  2.044263
C    -0.728644  -1.374250  3.532624
N    -1.568612  -0.558179  4.272281
C    -0.080954  -2.142790  4.484811
C    -1.396037  -0.868202  5.593863
N    -0.500939  -1.821166  5.756733
H    -0.119375  -2.217961  1.689351
H    -1.653157  -1.351076  1.605318
H    0.654066  -2.922961  4.309692
H    -1.945067  -0.367417  6.384992
H    -2.209347  0.130426  3.894192
O    2.040286  -0.286335  2.912305
H    1.309096  -0.588233  3.498449
