20
Energy: -14935.5822932 eV PBE+vdW (tier 2 basis)
N    0.688536  0.252358  3.414895
C    0.672248  -0.068325  1.984204
C    -0.041579  1.079914  1.270506
O    0.532726  2.030318  0.780322
H    1.042318  -0.554729  3.934056
H    -1.738336  1.753619  0.829449
H    1.681178  -0.097245  1.528780
C    -0.011096  -1.436075  1.769910
C    0.754088  -2.552272  2.395356
N    1.927058  -3.064119  1.866872
C    0.574233  -3.259709  3.567774
C    2.382050  -4.033812  2.719541
N    1.585299  -4.175829  3.759982
H    -0.144519  -1.608621  0.690888
H    -1.013262  -1.400078  2.215011
H    2.360248  -2.777402  0.996858
H    -0.243231  -3.158247  4.274960
H    3.288631  -4.598886  2.527383
O    -1.392917  0.947296  1.259789
H    1.316328  1.034841  3.598465
