20
Energy: -14935.7635009 eV PBE+vdW (tier 2 basis)
N    0.432247  1.490127  3.549773
C    0.806273  0.259130  2.836608
C    0.355917  0.346919  1.377838
O    -0.685655  -0.089315  0.918548
H    0.896391  2.302661  3.143390
H    0.842121  1.139488  -0.263257
H    1.902490  0.184968  2.850545
C    0.205332  -0.957231  3.559083
C    0.606601  -2.284764  3.008703
N    0.087702  -2.815689  1.842130
C    1.493614  -3.243312  3.457049
C    0.673879  -4.033388  1.643486
N    1.530015  -4.324808  2.606072
H    -0.892553  -0.858018  3.562802
H    0.532107  -0.893539  4.604696
H    -0.572022  -2.333487  1.238564
H    2.099004  -3.209995  4.357886
H    0.439739  -4.660188  0.788874
O    1.234847  1.064669  0.628781
H    -0.575050  1.648772  3.483430
