20
Energy: -14935.6880162 eV PBE+vdW (tier 2 basis)
N    -0.481676  1.236538  2.066558
C    0.331450  0.045957  1.839541
C    -0.007508  -0.682942  0.535499
O    -1.134853  -0.913377  0.149732
H    -1.469463  0.997658  1.949954
H    -0.274900  1.947169  1.363822
H    1.386982  0.349623  1.797438
C    0.130382  -0.939843  3.020395
C    0.909586  -2.204583  2.913267
N    2.278082  -2.277300  3.104722
C    0.546234  -3.488996  2.564738
C    2.664042  -3.569599  2.872556
N    1.637636  -4.329083  2.543805
H    -0.937800  -1.196051  3.069243
H    0.366120  -0.386230  3.941640
H    -0.451209  -3.846090  2.327893
H    3.695718  -3.894085  2.964349
H    2.882178  -1.509540  3.372771
O    1.106365  -1.053837  -0.148984
H    0.797634  -1.561388  -0.925938
