21
Energy: -567871.020738 eV PBE+vdW (tier 2 basis)
N    -0.277731  -0.513378  0.155665
C    0.223598  -0.295393  1.460787
C    1.808518  -0.885367  1.580021
O    2.004262  -2.044300  1.245958
H    0.015235  0.160050  -0.555447
H    -0.195356  -1.473027  -0.193694
H    0.320978  0.778243  1.653358
C    -0.548121  -1.021869  2.576359
C    -1.901901  -0.358419  2.939543
C    -3.064634  -0.587355  2.010668
O    -2.940843  -0.585482  0.718276
N    -4.274686  -0.757858  2.481258
H    0.058904  -0.997307  3.490509
H    -0.678965  -2.082039  2.316094
H    -1.785810  0.736075  3.028867
H    -2.185205  -0.706192  3.942057
H    -4.466349  -0.776287  3.479474
H    -5.066676  -0.855284  1.843860
O    2.574438  0.002427  2.020249
H    -1.977073  -0.465935  0.422352
Hg    4.491127  -1.320353  1.945376
