21
Energy: -567869.955245 eV PBE+vdW (tier 2 basis)
N    0.006491  0.855605  0.414178
C    -0.434008  0.386691  1.654663
C    0.732141  0.443556  2.758075
O    0.534277  0.048429  3.879995
H    0.637632  0.307605  -0.168426
H    -0.089047  1.837376  0.162488
H    -1.190512  1.082762  2.050738
C    -1.000273  -1.074720  1.600315
C    -1.773665  -1.460146  2.861725
C    -2.435936  -2.837702  2.865072
O    -3.054462  -3.270851  3.880409
N    -2.381799  -3.613828  1.794467
H    -0.170800  -1.772496  1.411249
H    -1.666321  -1.082143  0.725790
H    -2.591807  -0.744920  3.050755
H    -1.123380  -1.447807  3.751251
H    -1.922041  -3.324069  0.937660
H    -2.830275  -4.529148  1.806145
O    1.839039  0.973508  2.269167
H    2.532494  1.027136  2.965907
Hg    -3.403551  -2.263107  5.955639
