21
Energy: -567870.199459 eV PBE+vdW (tier 2 basis)
N    0.355556  0.538766  -0.018337
C    0.287883  0.107435  1.372478
C    1.655601  0.100542  2.149340
O    2.603157  0.785933  1.780248
H    -1.203871  0.820435  -0.274331
H    0.738847  -0.225534  -0.596975
H    -0.300694  0.869943  1.914629
C    -0.462199  -1.263521  1.458053
C    -1.658729  -1.485663  0.490889
C    -2.630851  -0.348266  0.303386
O    -2.234892  0.803376  -0.141010
N    -3.911970  -0.497692  0.532169
H    -0.838892  -1.360431  2.487644
H    0.240562  -2.089495  1.280227
H    -2.196769  -2.379235  0.831584
H    -1.291594  -1.730167  -0.519387
H    -4.300147  -1.376701  0.864564
H    -4.563152  0.265361  0.339459
O    1.770840  -0.590916  3.259998
H    0.982041  -1.113843  3.498330
Hg    1.970392  1.997581  -0.236250
