21
Energy: -567869.801638 eV PBE+vdW (tier 2 basis)
N    1.340219  0.412770  0.872310
C    1.024180  -0.583551  1.803985
C    2.159583  -1.743688  1.778247
O    1.878967  -2.895633  1.570247
H    1.058158  0.355298  -0.102873
H    2.035552  1.123722  1.093201
H    1.177198  -0.169413  2.816863
C    -0.395234  -1.185303  1.715586
C    -0.775033  -1.950597  0.444033
C    -2.180403  -2.541485  0.418688
O    -2.582322  -3.304189  -0.515063
N    -3.045371  -2.253137  1.378164
H    -1.070327  -0.329535  1.872933
H    -0.484443  -1.854198  2.584564
H    -0.092313  -2.804318  0.300759
H    -0.716150  -1.320361  -0.458732
H    -2.826842  -1.606981  2.130285
H    -3.986296  -2.644649  1.347750
O    3.338002  -1.204803  2.023691
H    4.041626  -1.891926  2.046853
Hg    -1.404214  -4.263904  -2.243570
