21
Energy: -567869.831705 eV PBE+vdW (tier 2 basis)
N    0.194764  0.453225  -0.020702
C    -0.083144  -0.053214  1.292975
C    1.180249  0.110389  2.252351
O    1.024725  0.205114  3.441175
H    1.014494  0.051617  -0.486125
H    0.177502  1.471295  -0.123090
H    -0.863339  0.561000  1.760869
C    -0.471748  -1.550484  1.297107
C    -1.964532  -1.864247  1.045227
C    -2.519033  -1.719971  -0.353141
O    -3.562808  -2.342972  -0.757091
N    -1.959491  -0.906848  -1.227070
H    -0.249576  -1.962479  2.290573
H    0.169059  -2.098477  0.590694
H    -2.612147  -1.249282  1.695287
H    -2.137293  -2.903861  1.354874
H    -1.141073  -0.313321  -0.945003
H    -2.361532  -0.800729  -2.159584
O    2.319831  0.094575  1.573429
H    3.087191  0.172864  2.184642
Hg    -4.974759  -3.803920  0.259620
