21
Energy: -567870.251472 eV PBE+vdW (tier 2 basis)
N    -0.180158  -0.633269  0.274112
C    0.480411  -0.824140  1.562160
C    1.570956  -1.958133  1.568368
O    2.102802  -2.322856  0.524911
H    -0.780404  -1.456987  0.099466
H    -1.200034  0.497585  0.471027
H    1.059772  0.090342  1.784856
C    -0.653158  -0.974022  2.623860
C    -1.354941  0.340720  3.029468
C    -2.263120  1.033769  2.038584
O    -2.019893  1.085206  0.770845
N    -3.323192  1.676124  2.468079
H    -0.227887  -1.369319  3.557401
H    -1.380683  -1.731451  2.294834
H    -0.601822  1.093699  3.321614
H    -1.936546  0.137977  3.939392
H    -3.583071  1.694728  3.450819
H    -3.904024  2.203374  1.814631
O    1.992000  -2.469060  2.702873
H    1.547854  -2.122124  3.498877
Hg    1.267195  -0.956638  -1.333924
