21
Energy: -567869.858577 eV PBE+vdW (tier 2 basis)
N    -0.114689  0.354311  0.260698
C    -0.057429  -0.034820  1.600556
C    1.483893  -0.265364  2.086872
O    1.717476  -0.881714  3.090002
H    0.029172  -0.325240  -0.485138
H    0.011179  1.329400  -0.005650
H    -0.350773  0.818783  2.236413
C    -0.861197  -1.310158  1.944102
C    -2.370135  -1.022819  2.077233
C    -3.154570  -2.296186  2.360312
O    -3.167003  -2.888306  3.483726
N    -3.826804  -2.852509  1.362127
H    -0.452336  -1.702267  2.886135
H    -0.676434  -2.076908  1.176872
H    -2.767970  -0.558153  1.165672
H    -2.561757  -0.323654  2.905615
H    -3.842573  -2.447203  0.431246
H    -4.342565  -3.718881  1.512843
O    2.323103  0.343608  1.269334
H    3.247693  0.253345  1.595829
Hg    -2.724949  -2.093484  5.611244
