21
Energy: -567870.704751 eV PBE+vdW (tier 2 basis)
N    0.187699  1.046007  0.303545
C    0.002125  0.070124  1.405676
C    1.277219  -0.799001  1.542481
O    2.001151  -1.059646  0.581066
H    -0.685821  1.522303  0.055487
H    0.877916  1.768371  0.539847
H    -0.103978  0.638320  2.345763
C    -1.282921  -0.807308  1.260241
C    -1.798810  -1.304454  -0.123424
C    -1.071690  -2.417254  -0.866424
O    -0.104503  -2.209222  -1.683414
N    -1.488189  -3.661822  -0.721083
H    -2.108438  -0.207844  1.668830
H    -1.180198  -1.662386  1.942997
H    -1.917516  -0.474041  -0.837429
H    -2.825938  -1.646917  0.066297
H    -2.311658  -3.899131  -0.174549
H    -1.032869  -4.414809  -1.238330
O    1.568033  -1.315552  2.712284
H    1.005372  -1.004102  3.449802
Hg    0.936203  -0.316155  -1.410704
