21
Energy: -567869.899708 eV PBE+vdW (tier 2 basis)
N    -0.129412  -0.142446  -0.001927
C    -0.114138  -0.101397  1.394105
C    1.413392  -0.029629  1.969845
O    1.663098  -0.403300  3.082526
H    0.080427  -1.007705  -0.497935
H    -0.022939  0.710871  -0.547515
H    -0.501631  0.876498  1.732866
C    -0.832664  -1.275675  2.095503
C    -2.356647  -1.133371  2.068194
C    -3.153612  -2.184504  2.832506
O    -4.422179  -2.189728  2.827570
N    -2.536945  -3.127070  3.526966
H    -0.454488  -1.272408  3.129559
H    -0.511948  -2.219436  1.627522
H    -2.745817  -1.156203  1.038646
H    -2.663418  -0.166158  2.500995
H    -1.525266  -3.197766  3.567526
H    -3.081409  -3.819540  4.040114
O    2.214224  0.515285  1.072759
H    3.121914  0.619221  1.439711
Hg    -5.964367  -0.726879  1.872275
