21
Energy: -567870.760127 eV PBE+vdW (tier 2 basis)
N    0.363736  -1.339723  0.108543
C    0.216187  -0.352354  1.269998
C    1.488591  0.511837  1.405557
O    1.758266  1.090844  2.422218
H    1.153497  -1.043107  -0.488353
H    -0.481188  -1.368338  -0.476646
H    -0.589432  0.336252  0.965062
C    -0.215177  -0.972075  2.624216
C    0.884131  -1.642069  3.528834
C    0.705671  -3.113389  3.868202
O    0.704208  -4.057729  2.971545
N    0.599051  -3.491279  5.120237
H    -1.080538  -1.634881  2.455929
H    -0.632486  -0.140261  3.205494
H    0.962529  -1.063120  4.456112
H    1.892332  -1.564819  3.083510
H    0.612646  -2.822904  5.887321
H    0.528211  -4.482416  5.357750
O    2.183540  0.525321  0.249718
H    2.949879  1.135214  0.319890
Hg    0.686349  -3.226003  1.060867
