21
Energy: -567870.338185 eV PBE+vdW (tier 2 basis)
N    0.636707  -0.485115  0.176928
C    -0.034399  -0.158170  1.416643
C    1.118499  -0.044360  2.431865
O    1.624569  -0.957424  3.182461
H    1.144307  0.273533  -0.274032
H    1.147130  -1.365598  0.140373
H    -0.455493  0.853126  1.325485
C    -1.177499  -1.171940  1.647160
C    -2.149751  -0.939861  2.848518
C    -2.572152  -2.210758  3.562636
O    -1.719091  -2.994679  4.160206
N    -3.834328  -2.560702  3.624785
H    -0.772158  -2.202892  1.634824
H    -1.759983  -1.135867  0.717216
H    -3.036647  -0.395597  2.502289
H    -1.706804  -0.291883  3.627394
H    -4.568465  -2.006486  3.189525
H    -4.114925  -3.401598  4.133134
O    1.742252  1.097400  2.366228
H    2.571239  1.112350  2.897634
Hg    0.227929  -2.327438  3.909761
