21
Energy: -567869.741549 eV PBE+vdW (tier 2 basis)
N    -0.838782  0.561779  0.080897
C    -0.322306  0.468383  1.500828
C    1.215513  0.499920  1.341082
O    1.722687  0.380887  0.242706
H    -0.030270  0.293434  -0.528353
H    -1.107164  1.520085  -0.175584
H    -0.641962  1.364609  2.049619
C    -0.769329  -0.814873  2.225522
C    -2.223406  -0.886401  2.729967
C    -3.255788  -1.232112  1.701065
O    -4.535904  -1.445212  1.975476
N    -3.036551  -1.216152  0.428027
H    -0.121492  -0.899491  3.108607
H    -0.537861  -1.693737  1.603032
H    -2.532211  0.047609  3.228556
H    -2.271097  -1.662330  3.512861
H    -1.661951  -0.075488  -0.058843
H    -3.749133  -1.613004  -0.199235
O    1.832730  0.649031  2.501104
H    2.806011  0.660574  2.369143
Hg    -5.402454  -2.122453  3.812824
