21
Energy: -567869.773859 eV PBE+vdW (tier 2 basis)
N    0.232051  -0.373231  0.117247
C    -0.166750  -0.007079  1.414627
C    1.111109  0.423424  2.295616
O    1.229447  0.071662  3.446013
H    0.591076  0.324691  -0.532612
H    0.356067  -1.344604  -0.156728
H    -0.692907  0.968346  1.357574
C    -1.061826  -1.007243  2.151477
C    -0.475359  -2.420811  2.431584
C    -0.651376  -2.904147  3.863198
O    -1.166147  -4.025287  4.187284
N    -0.198147  -2.140829  4.844525
H    -1.982398  -1.106272  1.561759
H    -1.361673  -0.524367  3.090272
H    0.610962  -2.453818  2.243379
H    -0.922191  -3.169946  1.767883
H    -0.281532  -2.448736  5.812382
H    0.343591  -1.298264  4.638671
O    1.915669  1.197776  1.598477
H    2.671992  1.510583  2.144477
Hg    -2.359654  -5.579538  3.010247
