21
Energy: -567869.443999 eV PBE+vdW (tier 2 basis)
N    -0.849738  1.146473  0.053812
C    -0.713898  0.559970  1.371188
C    0.720094  1.033334  1.882524
O    1.460894  0.508872  2.774950
H    -1.768919  1.545964  -0.130903
H    -0.567898  0.550923  -0.725847
H    -1.427652  1.067909  2.040772
C    -0.738097  -0.942772  1.648802
C    -1.790517  -2.029316  1.527855
C    -1.274165  -3.259501  2.318322
O    -0.215366  -3.304193  3.058814
N    -1.981976  -4.366624  2.240857
H    -0.656038  -0.875321  2.749712
H    0.178475  -1.358623  1.185391
H    -1.976158  -2.342879  0.491186
H    -2.755424  -1.733903  1.967358
H    -2.833073  -4.419294  1.684693
H    -1.696819  -5.202364  2.752413
O    1.133963  2.082828  1.281969
H    0.420689  2.205923  0.534409
Hg    1.192119  -1.617255  3.371903
