21
Energy: -567869.898596 eV PBE+vdW (tier 2 basis)
N    -0.596597  -0.250569  0.012214
C    -0.205358  -0.087274  1.342351
C    1.219055  0.682384  1.442551
O    1.901891  0.585745  2.428805
H    -1.039818  0.508626  -0.502272
H    -0.247966  -1.026143  -0.549762
H    -0.876407  0.648075  1.823777
C    -0.131984  -1.418815  2.138934
C    -0.233614  -1.186598  3.661426
C    0.031855  -2.476122  4.429530
O    -0.848010  -3.361555  4.644641
N    1.269146  -2.701390  4.848359
H    0.798510  -1.946170  1.887766
H    -0.966878  -2.046288  1.800219
H    -1.234475  -0.823721  3.933851
H    0.498959  -0.440591  3.996689
H    2.018167  -2.035239  4.683154
H    1.497519  -3.566009  5.337299
O    1.439459  1.399176  0.356845
H    2.276436  1.910626  0.442840
Hg    -3.186561  -3.239959  4.698511
