23
Energy: -602161.872054 eV PBE+vdW (tier 2 basis)
N    -0.146004  -0.003347  -0.135939
C    -0.006831  -0.038983  1.350979
C    1.470105  -0.194573  1.681009
O    2.258117  -0.761424  0.885548
H    0.073826  0.934104  -0.494915
H    -1.130270  -0.173202  -0.378803
H    -0.381096  0.903914  1.779720
C    -0.852588  -1.213204  1.960155
C    -0.363105  -2.632487  1.586771
C    -2.339698  -1.002705  1.637248
C    0.664277  -3.275698  2.508849
H    -0.728550  -1.115443  3.051139
H    0.007016  -2.654825  0.505771
H    -1.239321  -3.290508  1.487174
H    -2.679313  0.013804  1.875793
H    -2.942509  -1.695737  2.237193
H    -2.589502  -1.219797  0.586236
H    1.585562  -2.693750  2.638859
H    0.943152  -4.276401  2.157516
H    0.217698  -3.402718  3.505383
O    1.959423  0.199344  2.819691
H    1.327110  0.679625  3.393562
Pb    1.432557  -1.671727  -1.038920
