23
Energy: -602162.288668 eV PBE+vdW (tier 2 basis)
N    -0.795556  0.564116  -0.054545
C    -0.067804  0.138446  1.210948
C    1.368639  -0.217869  0.876713
O    2.155738  -0.527223  1.835649
H    -0.993482  -0.266116  -0.642214
H    -0.259733  1.239220  -0.617359
H    -0.034913  1.025932  1.862205
C    -0.837799  -0.994110  1.949340
C    -0.760663  -2.374383  1.257523
C    -2.271568  -0.543026  2.267442
C    -1.313518  -2.494609  -0.169507
H    -0.299665  -1.082539  2.905844
H    -1.311490  -3.069533  1.906332
H    0.279826  -2.736171  1.279122
H    -2.298113  0.432505  2.773066
H    -2.735290  -1.267583  2.947667
H    -2.926659  -0.500207  1.384085
H    -0.654038  -2.044706  -0.935502
H    -2.329934  -2.088037  -0.273949
H    -1.384183  -3.549504  -0.461911
O    1.789820  -0.196506  -0.333271
H    -1.700779  0.987724  0.196228
Pb    3.950164  -0.803819  0.411098
