23
Energy: -602161.728572 eV PBE+vdW (tier 2 basis)
N    0.644305  -0.506766  0.010066
C    0.171333  -0.126626  1.388337
C    1.378992  0.274573  2.232453
O    2.550896  0.330284  1.751247
H    0.017097  -0.094826  -0.690164
H    0.530375  -1.523678  -0.100672
H    -0.435224  0.788713  1.281774
C    -0.726316  -1.257665  2.013109
C    -1.872483  -0.729640  2.910348
C    0.101839  -2.387336  2.640816
C    -1.524674  -0.001958  4.212059
H    -1.249286  -1.671891  1.133918
H    -2.476176  -1.613664  3.161121
H    -2.529813  -0.088655  2.304113
H    0.603317  -2.092606  3.572074
H    0.873519  -2.781702  1.960650
H    -0.552753  -3.232893  2.883192
H    -0.827095  -0.556785  4.860225
H    -2.427069  0.132393  4.822824
H    -1.189179  1.044043  4.053470
O    1.255121  0.595718  3.470433
H    0.318241  0.524784  3.822544
Pb    3.034798  0.028351  -0.396307
