23
Energy: -602162.096999 eV PBE+vdW (tier 2 basis)
N    0.514251  0.260158  0.537647
C    0.192809  -0.051996  1.995255
C    1.496165  -0.411543  2.687532
O    2.529348  -0.704058  1.983928
H    -0.349145  0.524753  0.040498
H    1.192054  1.028948  0.427229
H    -0.198004  0.876679  2.434925
C    -0.908004  -1.175126  2.053001
C    -1.989458  -0.884500  3.117688
C    -0.320825  -2.589709  2.115020
C    -1.576795  -0.924651  4.588417
H    -1.430512  -1.081179  1.082857
H    -2.782102  -1.627503  2.943047
H    -2.448341  0.090200  2.887384
H    0.405293  -2.793222  1.313464
H    -1.126919  -3.323899  1.999577
H    0.156401  -2.795588  3.082822
H    -2.464248  -0.782833  5.216375
H    -0.868906  -0.128168  4.853341
H    -1.134687  -1.887606  4.875236
O    1.550241  -0.444534  3.961598
H    0.912380  -0.565487  0.064243
Pb    3.752003  -1.144134  3.954918
