23
Energy: -602162.214807 eV PBE+vdW (tier 2 basis)
N    0.023953  1.043265  0.603973
C    0.352195  0.241782  1.858889
C    1.610389  -0.568043  1.591980
O    2.139564  -1.233254  2.544897
H    0.855695  1.471127  0.171010
H    -0.650367  1.789785  0.826629
H    0.583034  0.972887  2.648707
C    -0.891193  -0.599025  2.278771
C    -0.805808  -1.009046  3.764110
C    -1.141712  -1.771551  1.323892
C    -2.116963  -1.588560  4.301332
H    -1.736685  0.110519  2.198536
H    -0.533166  -0.122383  4.358399
H    0.007683  -1.736646  3.902559
H    -2.120836  -2.218488  1.527038
H    -0.392712  -2.566025  1.454636
H    -1.160139  -1.491397  0.257570
H    -2.956565  -0.894859  4.158011
H    -2.025488  -1.773800  5.377881
H    -2.377460  -2.544936  3.831574
O    2.134059  -0.577608  0.420875
H    -0.410564  0.432546  -0.105954
Pb    3.848087  -2.009293  1.195688
