23
Energy: -602161.783953 eV PBE+vdW (tier 2 basis)
N    0.783745  -0.618903  -0.058195
C    0.576698  -0.440718  1.414585
C    1.878985  -0.840452  2.094143
O    2.573206  -1.784438  1.639659
H    -0.121324  -0.558026  -0.540404
H    1.353909  0.147094  -0.439317
H    0.346613  0.612832  1.633927
C    -0.640273  -1.310904  1.890522
C    -0.970883  -1.120473  3.396424
C    -0.533539  -2.790052  1.498608
C    -0.266933  -2.041406  4.398315
H    -1.483282  -0.876968  1.326714
H    -2.056189  -1.262447  3.495175
H    -0.811372  -0.061003  3.658287
H    -0.527745  -2.954558  0.395334
H    -1.444087  -3.334639  1.792543
H    0.285266  -3.327583  2.006840
H    0.829807  -2.026188  4.341332
H    -0.592476  -3.084422  4.297936
H    -0.530044  -1.733909  5.417567
O    2.308323  -0.254641  3.170656
H    1.738194  0.476246  3.487741
Pb    1.926169  -2.805487  -0.297109
