23
Energy: -602161.707699 eV PBE+vdW (tier 2 basis)
N    0.853848  -0.028928  0.386656
C    0.070777  0.239104  1.639482
C    0.999517  0.818059  2.700280
O    2.194840  1.143912  2.457190
H    0.297502  0.246831  -0.430213
H    0.968805  -1.050071  0.301854
H    -0.647724  1.045866  1.411403
C    -0.724015  -1.011780  2.128960
C    0.224745  -2.168431  2.508356
C    -1.804674  -1.391262  1.108531
C    -0.471191  -3.330853  3.222386
H    -1.254790  -0.691313  3.046233
H    1.034119  -1.788985  3.158026
H    0.715470  -2.569435  1.600323
H    -2.443649  -0.537426  0.846160
H    -2.458364  -2.164635  1.525891
H    -1.379155  -1.808325  0.183514
H    0.265288  -4.082714  3.527948
H    -1.201224  -3.833527  2.577381
H    -0.990681  -2.988374  4.127378
O    0.580998  1.043504  3.904929
H    -0.342023  0.749633  4.064468
Pb    3.115323  0.981297  0.424656
