23
Energy: -602160.481749 eV PBE+vdW (tier 2 basis)
N    -0.741253  0.981189  0.453041
C    -0.891778  0.519960  1.817654
C    0.452579  1.060316  2.288509
O    0.579691  2.267857  2.709753
H    -0.439954  0.307111  -0.246357
H    -1.375919  1.694492  0.107812
H    -1.683970  1.085998  2.325580
C    -1.094020  -0.989731  2.034222
C    -2.406190  -1.435866  1.351329
C    -1.056687  -1.319263  3.531814
C    -2.610801  -2.950976  1.333226
H    -0.268234  -1.530954  1.518002
H    -2.422146  -1.060198  0.315999
H    -3.249090  -0.947404  1.867488
H    -0.145498  -0.960898  4.036166
H    -1.092036  -2.402329  3.690785
H    -1.921649  -0.881456  4.048963
H    -1.774471  -3.468503  0.843120
H    -3.521850  -3.196811  0.774759
H    -2.729797  -3.370159  2.339963
O    1.561057  0.370476  2.199031
H    1.379494  -0.567472  1.959501
Pb    2.083444  3.590857  3.550473
