23
Energy: -602161.719312 eV PBE+vdW (tier 2 basis)
N    0.162036  0.627788  0.413529
C    -0.166363  0.353434  1.845897
C    1.097041  0.537314  2.663072
O    2.231421  0.277166  2.171553
H    0.095266  1.632713  0.206515
H    -0.555746  0.171585  -0.167165
H    -0.946157  1.050133  2.192069
C    -0.693511  -1.117995  1.990782
C    -1.974202  -1.328523  1.145199
C    -0.886472  -1.521269  3.457119
C    -3.182161  -0.469077  1.518494
H    0.101346  -1.768356  1.563073
H    -2.228123  -2.393693  1.253145
H    -1.759297  -1.225244  0.064483
H    0.056264  -1.586322  4.015281
H    -1.346871  -2.515384  3.503310
H    -1.565517  -0.838062  3.987661
H    -3.490709  -0.617213  2.560291
H    -4.038222  -0.743150  0.890652
H    -3.015339  0.607539  1.360770
O    1.079015  0.910626  3.904220
H    0.183693  1.096199  4.257643
Pb    2.454134  -0.202269  -0.014374
