23
Energy: -602162.225401 eV PBE+vdW (tier 2 basis)
N    -0.148945  0.241618  0.393872
C    0.138588  -0.174630  1.826875
C    1.613242  -0.524549  1.913914
O    2.220188  -0.465848  3.035868
H    0.130200  1.211197  0.191857
H    -1.167875  0.150352  0.228683
H    -0.070107  0.691482  2.470212
C    -0.794360  -1.365182  2.244749
C    -2.268496  -1.026701  1.906055
C    -0.611455  -1.673633  3.735196
C    -3.259969  -2.125809  2.304739
H    -0.491803  -2.246610  1.651308
H    -2.405008  -0.884736  0.815050
H    -2.548229  -0.077466  2.393455
H    0.427469  -1.891139  4.005954
H    -1.201232  -2.557401  3.998872
H    -0.958925  -0.840004  4.361016
H    -2.972960  -3.101095  1.889596
H    -4.255885  -1.880318  1.917861
H    -3.347289  -2.222054  3.392510
O    2.234515  -0.913819  0.858375
H    0.349192  -0.377047  -0.265926
Pb    4.198315  -1.244918  2.125101
