28
Energy: -569909.5711026  eV PBE+vdW (tier 2 basis)
N    1.573556  0.482732  1.947409
C    1.214711  -0.880582  1.524830
C    1.026401  -0.986386  -0.020654
O    1.214559  -0.074464  -0.832010
H    0.813517  0.965331  2.439659
H    2.420810  0.521571  2.522932
H    2.095775  -1.521558  1.704690
C    -0.031257  -1.446618  2.287244
C    0.296447  -1.903549  3.719959
C    -0.940777  -2.346407  4.561961
N    -1.472426  -3.682156  4.309769
C    -1.371254  -4.762022  5.135972
N    -2.231630  -5.771506  4.965200
N    -0.439363  -4.821431  6.083968
H    -0.416581  -2.285225  1.694757
H    -0.819545  -0.675434  2.288377
H    0.750703  -1.081146  4.292822
H    1.035821  -2.718091  3.698483
H    -1.766262  -1.634587  4.410985
H    -0.671673  -2.282537  5.624245
H    -2.140008  -3.782038  3.548746
H    -2.113840  -6.655900  5.455183
H    -0.459739  -5.547271  6.795838
H    0.353688  -4.192295  6.109978
H    -3.096985  -5.662874  4.443024
O    0.688081  -2.194467  -0.380945
H    0.625057  -2.285751  -1.361263
Hg    2.025215  1.917658  0.074843
