28
Energy: -569909.1147054  eV PBE+vdW (tier 2 basis)
N    2.439999  0.426811  2.095511
C    1.642871  -0.810767  1.982161
C    0.766553  -0.809491  0.688966
O    0.361718  0.223365  0.143224
H    2.476070  0.796864  3.051897
H    3.403030  0.316327  1.754115
H    2.359791  -1.643187  1.865520
C    0.757066  -1.031588  3.251651
C    0.189165  -2.463323  3.398000
C    -0.274744  -2.861203  4.824810
N    -1.686260  -2.594618  5.102121
C    -2.466513  -3.327917  5.946309
N    -3.787785  -3.111665  5.938358
N    -1.935227  -4.245295  6.749505
H    -0.039935  -0.271863  3.273032
H    1.417581  -0.833353  4.110195
H    0.987465  -3.182464  3.155361
H    -0.632582  -2.650788  2.691734
H    0.362125  -2.372090  5.583245
H    -0.126994  -3.944486  4.931237
H    -2.099482  -1.731527  4.757846
H    -4.390909  -3.502160  6.659779
H    -2.525414  -4.903677  7.253053
H    -0.954363  -4.241428  7.008098
H    -4.254232  -2.635875  5.171199
O    0.376426  -1.951331  0.192890
H    0.801418  -2.740994  0.586625
Hg    1.499164  2.158720  0.758557
