28
Energy: -569909.6469272  eV PBE+vdW (tier 2 basis)
 N    0.03391    1.45191    2.44823
 C    0.28385    0.04306    2.08441
 C    0.98647   -0.04994    0.70292
 O    1.57919    0.88361    0.15159
 H   -0.88813    1.78838    2.14343
 H    0.13132    1.62571    3.45457
 H    1.03731   -0.33980    2.79428
 C   -1.03594   -0.80525    2.19597
 C   -0.77276   -2.28938    2.55427
 C   -2.03256   -3.18162    2.55808
 N   -2.78405   -3.18009    3.80684
 C   -4.05271   -3.66725    3.95866
 N   -4.63089   -3.55997    5.15814
 N   -4.70272   -4.21313    2.93421
 H   -1.59643   -0.72258    1.25382
 H   -1.65481   -0.34696    2.98210
 H   -0.25579   -2.36849    3.52344
 H   -0.09315   -2.72727    1.81345
 H   -1.67008   -4.20931    2.35515
 H   -2.71373   -2.91503    1.73559
 H   -2.24220   -3.10972    4.66722
 H   -4.24691   -2.97663    5.89563
 H   -5.68555   -4.46387    3.01408
 H   -4.22206   -4.56787    2.11455
 H   -5.50272   -4.03989    5.37166
 O    0.93734   -1.25111    0.18822
 H    1.44442   -1.30591   -0.65648
Hg    1.56236    2.91543    1.34299
