28
Energy: -569909.7761908  eV PBE+vdW (tier 2 basis)
 N    0.34724    1.77821    2.07972
 C    0.31564    0.31659    2.28720
 C    1.34352   -0.39686    1.37050
 O    2.27730    0.16300    0.78710
 H   -0.34805    2.10021    1.39442
 H    0.21460    2.30511    2.95050
 H    0.69221    0.13196    3.30785
 C   -1.15131   -0.23409    2.14526
 C   -1.45910   -1.42845    3.07429
 C   -2.95510   -1.84127    2.95036
 N   -3.25219   -2.95603    3.83970
 C   -4.03497   -4.03882    3.56636
 N   -4.00676   -5.06821    4.41737
 N   -4.80206   -4.07252    2.47749
 H   -1.34380   -0.48573    1.09260
 H   -1.82908    0.59199    2.40794
 H   -1.25424   -1.14443    4.11818
 H   -0.82599   -2.29135    2.83262
 H   -3.17900   -2.14722    1.92008
 H   -3.60073   -0.98358    3.20356
 H   -2.95148   -2.86590    4.80949
 H   -3.26677   -5.18408    5.10434
 H   -5.27576   -4.93048    2.20440
 H   -5.12029   -3.22523    2.01907
 H   -4.71232   -5.80129    4.38508
 O    1.15147   -1.68970    1.31340
 H    1.84876   -2.13407    0.77575
Hg    2.41626    2.48921    1.15037
