28
Energy: -569910.0285988  eV PBE+vdW (tier 2 basis)
N    2.719689  -0.278756  1.251781
C    2.212787  -0.576457  2.659734
C    2.715611  -2.009863  3.050484
O    3.520457  -2.568060  2.264460
H    2.655310  0.726647  1.033075
H    2.188368  -0.795042  0.532513
H    2.765650  0.102735  3.328947
C    0.696949  -0.395302  2.810055
C    0.210500  1.067532  2.699619
C    -1.298423  1.169958  3.044316
N    -1.771976  2.546485  2.949973
C    -2.710432  3.134032  3.742997
N    -2.863373  4.459051  3.669133
N    -3.449857  2.409046  4.582055
H    0.455469  -0.792536  3.806856
H    0.169843  -1.041422  2.089003
H    0.362211  1.458631  1.680217
H    0.776261  1.710785  3.390242
H    -1.467514  0.818903  4.071425
H    -1.878657  0.523527  2.363273
H    -1.497110  3.080506  2.127683
H    -2.161462  5.061481  3.249233
H    -3.672389  4.922195  4.076736
H    -3.618594  1.420643  4.431109
H    -4.039472  2.861024  5.276432
O    2.310360  -2.471309  4.151830
H    3.708264  -0.564883  1.148459
Hg    3.623528  -4.378553  3.894361
