28
Energy: -569909.8487241  eV PBE+vdW (tier 2 basis)
N    0.371956  0.557168  0.205289
C    0.492697  0.231045  1.689883
C    2.001432  -0.008112  2.019531
O    2.269389  -0.474199  3.160658
H    0.474486  -0.274516  -0.395259
H    -0.544626  0.985088  -0.002566
H    0.277021  1.180062  2.209372
C    -0.518439  -0.813691  2.180517
C    -0.447277  -2.251750  1.628282
C    -1.524741  -3.123637  2.310253
N    -1.548735  -4.485785  1.779241
C    -2.594195  -5.350453  1.880712
N    -2.531157  -6.506273  1.208941
N    -3.664992  -5.049832  2.612448
H    -1.518953  -0.388082  1.993696
H    -0.405827  -0.826162  3.274939
H    0.548147  -2.682556  1.820173
H    -0.618945  -2.276616  0.540394
H    -2.520165  -2.681436  2.151001
H    -1.339360  -3.145412  3.399548
H    -0.667860  -4.889586  1.468623
H    -1.860729  -6.661723  0.461767
H    -4.502926  -5.624563  2.572128
H    -3.640898  -4.350531  3.346146
H    -3.202993  -7.252194  1.375122
O    2.840995  0.369899  1.161393
H    1.109585  1.223123  -0.083062
Hg    4.553111  -0.110274  2.802833
