28
Energy: -569909.2786077  eV PBE+vdW (tier 2 basis)
N    1.488558  -1.164079  0.037636
C    0.248024  -0.381756  0.202588
C    0.476864  0.852905  1.132740
O    1.318513  0.874342  2.036259
H    1.329457  -2.177757  0.038608
H    2.012379  -0.917717  -0.811772
H    -0.010028  0.025927  -0.791589
C    -0.900199  -1.282440  0.753235
C    -2.317398  -0.669153  0.720052
C    -3.382137  -1.716015  1.154304
N    -4.713390  -1.136309  1.293749
C    -5.880911  -1.571349  0.736359
N    -7.027239  -1.205010  1.312434
N    -5.882897  -2.335806  -0.355371
H    -0.649089  -1.593436  1.780299
H    -0.891526  -2.190928  0.130424
H    -2.562584  -0.309868  -0.291434
H    -2.381252  0.190622  1.403765
H    -3.098849  -2.138143  2.134014
H    -3.424605  -2.559116  0.454430
H    -4.823148  -0.432485  2.022405
H    -7.068877  -0.857770  2.267005
H    -5.086564  -2.396157  -0.978318
H    -6.740408  -2.774626  -0.682132
H    -7.922374  -1.351999  0.850680
O    -0.304990  1.890131  1.000505
H    -0.878563  1.873108  0.207229
Hg    2.975234  -0.758113  1.858895
