28
Energy: -569909.3171708  eV PBE+vdW (tier 2 basis)
N    0.948506  0.551626  0.016986
C    0.157554  0.303556  1.237873
C    1.061735  -0.222301  2.398509
O    2.083549  -0.890599  2.211706
H    0.452525  0.294781  -0.843933
H    1.264899  1.525884  -0.068827
H    -0.235811  1.280982  1.571378
C    -1.004671  -0.693053  0.946390
C    -2.042042  -0.875078  2.076882
C    -3.247605  -1.716527  1.590840
N    -4.209957  -1.935175  2.666651
C    -5.554744  -2.103784  2.520657
N    -6.313248  -2.103226  3.622183
N    -6.103850  -2.249336  1.316798
H    -0.576245  -1.669483  0.667321
H    -1.517498  -0.297484  0.055381
H    -2.416354  0.103449  2.415995
H    -1.581485  -1.380675  2.939631
H    -2.890481  -2.688527  1.204673
H    -3.764059  -1.198032  0.770161
H    -3.838177  -2.148372  3.590790
H    -7.285811  -2.403273  3.595348
H    -7.114103  -2.224326  1.199251
H    -5.571980  -2.572556  0.516169
H    -5.974262  -1.753592  4.514440
O    0.685795  -0.010953  3.630845
H    -0.062862  0.612567  3.728332
Hg    2.932371  -0.773200  0.041841
