28
Energy: -569909.7854363  eV PBE+vdW (tier 2 basis)
 N    1.79513   -0.07146    0.35322
 C    0.61315   -0.33372    1.19823
 C    1.03361   -0.62197    2.66510
 O    2.14529   -0.37782    3.14333
 H    2.12709   -0.90951   -0.14054
 H    1.63193    0.67035   -0.33665
 H    0.04886    0.61254    1.26098
 C   -0.28479   -1.45909    0.56567
 C   -1.79035   -1.30626    0.87541
 C   -2.61067   -2.43615    0.19268
 N   -4.03337   -2.27444    0.45853
 C   -5.05954   -2.50199   -0.41060
 N   -6.27824   -2.07023   -0.07424
 N   -4.85180   -3.13232   -1.56550
 H    0.08944   -2.44289    0.88447
 H   -0.14547   -1.39746   -0.52348
 H   -2.15891   -0.33663    0.50923
 H   -1.95672   -1.33668    1.96079
 H   -2.27226   -3.41647    0.57071
 H   -2.45693   -2.42064   -0.89484
 H   -4.30693   -2.08565    1.42185
 H   -6.42578   -1.37889    0.65598
 H   -5.58391   -3.17780   -2.27043
 H   -4.06742   -3.76157   -1.69970
 H   -7.10813   -2.38494   -0.57279
 O    0.05594   -1.11806    3.37954
 H    0.32464   -1.24216    4.32053
Hg    3.68012    0.59889    1.64454
