28
Energy: -569909.3269629  eV PBE+vdW (tier 2 basis)
N    0.728796  1.095641  1.021815
C    0.522691  0.216631  2.180485
C    1.834259  -0.553311  2.586643
O    2.810058  -0.692438  1.843324
H    0.038920  0.962146  0.276505
H    0.775211  2.092154  1.261437
H    0.312193  0.867750  3.047918
C    -0.623747  -0.815284  1.959813
C    -2.038264  -0.229420  2.171306
C    -3.127522  -1.307824  1.968071
N    -4.458519  -0.776639  2.245182
C    -5.536193  -1.495660  2.668398
N    -5.507653  -2.826419  2.688974
N    -6.620234  -0.827766  3.076693
H    -0.471502  -1.657475  2.650316
H    -0.516945  -1.247554  0.950740
H    -2.217013  0.606805  1.475765
H    -2.126180  0.176538  3.190348
H    -2.952492  -2.156713  2.646294
H    -3.081897  -1.694137  0.933557
H    -4.650573  0.184075  1.967659
H    -4.870115  -3.362460  2.110285
H    -7.509496  -1.301200  3.223401
H    -6.591040  0.160142  3.314015
H    -6.250527  -3.355577  3.139623
O    1.887783  -1.109416  3.763371
H    1.130825  -0.924063  4.356504
Hg    2.843175  0.618471  -0.058445
