28
Energy: -569909.6466115  eV PBE+vdW (tier 2 basis)
N    0.078572  1.495741  2.509693
C    0.298041  0.093883  2.102096
C    0.982018  0.028072  0.709798
O    1.582055  0.967163  0.176150
H    -0.841726  1.856659  2.228804
H    0.194072  1.639031  3.518834
H    1.052507  -0.323336  2.791159
C    -1.036471  -0.731880  2.205559
C    -0.799733  -2.231544  2.513408
C    -2.079553  -3.094746  2.515646
N    -2.804958  -3.115276  3.779504
C    -4.082609  -3.573963  3.943396
N    -4.631900  -3.491322  5.158170
N    -4.768844  -4.068087  2.916338
H    -1.607773  -0.608424  1.274445
H    -1.635189  -0.286366  3.014284
H    -0.266142  -2.351927  3.469216
H    -0.144606  -2.661343  1.746302
H    -1.745545  -4.123533  2.273379
H    -2.770807  -2.787016  1.716319
H    -2.243346  -3.087979  4.629591
H    -4.216184  -2.943879  5.905782
H    -5.755772  -4.296534  3.010161
H    -4.315226  -4.408674  2.075524
H    -5.511702  -3.954617  5.375265
O    0.908276  -1.157755  0.163699
H    1.403811  -1.196975  -0.688559
Hg    1.614736  2.964630  1.423038
