28
Energy: -569909.2870289  eV PBE+vdW (tier 2 basis)
N    1.302827  -1.009835  0.082166
C    0.351711  -0.232568  0.901548
C    1.059112  0.387890  2.147631
O    2.030445  -0.134803  2.705536
H    0.885028  -1.853072  -0.327327
H    1.728136  -0.458407  -0.673959
H    0.010488  0.615870  0.281589
C    -0.852703  -1.121711  1.338009
C    -2.051384  -0.376933  1.968466
C    -3.259997  -1.323883  2.156777
N    -4.406044  -0.610294  2.718041
C    -5.432797  -1.172461  3.414393
N    -5.548726  -2.493583  3.523700
N    -6.315868  -0.357738  4.004187
H    -0.488176  -1.903168  2.023960
H    -1.196367  -1.628359  0.422198
H    -2.352753  0.454379  1.309833
H    -1.785548  0.044095  2.948937
H    -2.997890  -2.142143  2.843979
H    -3.537421  -1.772669  1.185704
H    -4.551971  0.352403  2.419560
H    -5.108975  -3.130843  2.868962
H    -7.189282  -0.712580  4.388859
H    -6.129506  0.631187  4.147940
H    -6.226514  -2.906874  4.159837
O    0.562084  1.471555  2.678590
H    -0.135471  1.905637  2.146034
Hg    3.122562  -1.748092  1.428853
