28
Energy: -569909.7528704  eV PBE+vdW (tier 2 basis)
 N    0.39646   -0.66815    0.15214
 C    0.63317    0.03788    1.48423
 C    2.17208    0.24244    1.66355
 O    2.88937    0.07083    0.63925
 H   -0.58649   -0.56691   -0.14771
 H    0.61012   -1.67644    0.19115
 H    0.26003    1.06468    1.33464
 C   -0.13863   -0.59815    2.65107
 C    0.34957   -1.96442    3.17582
 C   -0.63797   -2.69815    4.10284
 N   -0.82385   -2.05566    5.40691
 C   -1.81866   -2.37047    6.28437
 N   -1.91399   -1.66597    7.41811
 N   -2.69224   -3.33680    6.01327
 H   -1.19126   -0.66608    2.32768
 H   -0.12763    0.15035    3.45568
 H    1.32106   -1.85096    3.68175
 H    0.52666   -2.67079    2.34913
 H   -0.25746   -3.72567    4.24477
 H   -1.62371   -2.77746    3.61903
 H   -0.02008   -1.57975    5.81164
 H   -2.53701   -1.95346    8.16958
 H   -1.41524   -0.79225    7.55597
 H   -3.51219   -3.47949    6.59792
 H   -2.50743   -4.05870    5.32563
 O    2.57572    0.64021    2.78655
 H    0.99965   -0.26750   -0.58710
Hg    4.75465    0.89257    1.87769
