28
Energy: -569909.7279700  eV PBE+vdW (tier 2 basis)
N    0.194615  1.779099  1.944647
C    0.193826  0.317629  2.156583
C    1.172845  -0.383449  1.179222
O    2.060520  0.188678  0.539667
H    -0.544127  2.090393  1.301067
H    0.106467  2.306441  2.820764
H    0.635512  0.139903  3.152132
C    -1.274696  -0.245585  2.110489
C    -1.508013  -1.469525  3.022407
C    -3.026550  -1.833249  3.065250
N    -3.292861  -2.919065  3.995765
C    -3.882996  -4.124899  3.752069
N    -4.310630  -4.833068  4.800097
N    -4.031382  -4.589091  2.513261
H    -1.548186  -0.462769  1.067935
H    -1.932870  0.567383  2.451980
H    -1.180239  -1.236108  4.046731
H    -0.928997  -2.337773  2.684113
H    -3.403565  -2.097986  2.070284
H    -3.604503  -0.956737  3.399588
H    -3.119868  -2.715491  4.979181
H    -4.409274  -4.426742  5.726531
H    -4.585063  -5.421886  2.329272
H    -3.553639  -4.185607  1.717507
H    -4.656578  -5.784045  4.692098
O    0.997980  -1.679948  1.136275
H    1.672442  -2.112660  0.561496
Hg    2.194830  2.521153  0.893590
