28
Energy: -569909.8488510  eV PBE+vdW (tier 2 basis)
 N   -0.38902    0.34419    0.15387
 C   -0.22417    0.12853    1.65429
 C    1.27815    0.35347    2.02097
 O    1.63567    0.03300    3.18746
 H   -1.38355    0.47750   -0.09039
 H    0.13202    1.18374   -0.15349
 H   -0.72178    0.99413    2.12355
 C   -0.90384   -1.14383    2.17775
 C   -0.40180   -2.52148    1.70012
 C   -1.20230   -3.63768    2.40651
 N   -0.80973   -4.97061    1.95124
 C   -1.55658   -6.09928    2.08946
 N   -1.13838   -7.21703    1.48356
 N   -2.68711   -6.09234    2.79239
 H   -1.97833   -1.03629    1.95188
 H   -0.82735   -1.07651    3.27329
 H    0.66906   -2.63566    1.93155
 H   -0.52412   -2.64232    0.61198
 H   -2.27711   -3.51395    2.20283
 H   -1.05753   -3.55323    3.49894
 H    0.15799   -5.11043    1.66969
 H   -1.56400   -8.11908    1.68500
 H   -3.31789   -6.88980    2.77461
 H   -2.89068   -5.38015    3.48459
 H   -0.43150   -7.20488    0.75412
 O    1.99716    0.92458    1.15999
 H   -0.03121   -0.44544   -0.40416
Hg    3.72494    1.03384    2.85040
