28
Energy: -569909.2771935  eV PBE+vdW (tier 2 basis)
N    2.167384  0.834215  2.373333
C    1.397262  -0.420042  2.264453
C    0.781009  -0.585153  0.838049
O    0.471148  0.369202  0.118102
H    2.033405  1.312753  3.271145
H    3.175615  0.704694  2.220752
H    2.115690  -1.250637  2.386651
C    0.284920  -0.476548  3.357016
C    -0.423316  -1.837085  3.535798
C    -1.399967  -1.793732  4.745787
N    -2.212925  -2.999641  4.856503
C    -2.366347  -3.809995  5.944206
N    -3.458211  -4.573720  6.010794
N    -1.451969  -3.845116  6.913243
H    -0.458967  0.309774  3.149806
H    0.782534  -0.208596  4.302459
H    0.311508  -2.640629  3.699081
H    -1.002206  -2.092759  2.635713
H    -2.088709  -0.939960  4.625759
H    -0.864290  -1.630036  5.688471
H    -2.875681  -3.166931  4.100875
H    -3.543699  -5.315978  6.702067
H    -1.635702  -4.335487  7.785257
H    -0.501885  -3.522367  6.775514
H    -4.285100  -4.390081  5.448548
O    0.512005  -1.788268  0.407617
H    0.872369  -2.511927  0.959821
Hg    1.452123  2.398052  0.719178
