28
Energy: -569909.1428790  eV PBE+vdW (tier 2 basis)
N    1.264474  0.765257  2.116602
C    1.472739  -0.686346  2.208832
C    1.707850  -1.349791  0.798840
O    1.506382  -0.777160  -0.275742
H    0.351691  1.073168  2.464290
H    1.999735  1.314844  2.573994
H    2.432017  -0.837219  2.734717
C    0.317035  -1.429505  2.950548
C    0.325537  -1.187408  4.479485
C    -0.454143  -2.214401  5.325990
N    -1.906839  -2.052360  5.321135
C    -2.788198  -2.992664  5.776541
N    -4.096392  -2.739170  5.669460
N    -2.359738  -4.142109  6.291079
H    0.429779  -2.505400  2.751703
H    -0.646688  -1.152102  2.493568
H    -0.012108  -0.167911  4.725793
H    1.360574  -1.249143  4.847417
H    -0.076126  -2.116495  6.361225
H    -0.220909  -3.238755  4.995538
H    -2.266268  -1.099581  5.300558
H    -4.789004  -3.322055  6.135096
H    -3.011989  -4.893464  6.503924
H    -1.420465  -4.257023  6.656533
H    -4.457520  -1.984350  5.093863
O    2.126932  -2.582752  0.755065
H    2.355191  -2.985677  1.617668
Hg    1.245446  1.516571  -0.184721
