28
Energy: -569910.0247956  eV PBE+vdW (tier 2 basis)
N    -0.626080  0.559647  1.276667
C    0.448064  0.267854  2.319656
C    1.840310  0.545785  1.653833
O    1.835879  1.054203  0.505373
H    -0.667872  -0.174026  0.551119
H    -0.432049  1.448112  0.783854
H    0.345956  1.053523  3.085905
C    0.323898  -1.130977  2.938782
C    -0.882588  -1.305303  3.889325
C    -0.817547  -2.671978  4.620654
N    -1.899770  -2.804928  5.590276
C    -2.560393  -3.950607  5.913981
N    -3.653509  -3.857632  6.677320
N    -2.140313  -5.135583  5.470872
H    1.256718  -1.287933  3.499671
H    0.315187  -1.891780  2.141458
H    -1.842452  -1.249637  3.352723
H    -0.874018  -0.496675  4.637293
H    0.156143  -2.765699  5.131733
H    -0.900864  -3.492182  3.894779
H    -2.066417  -2.013857  6.209909
H    -4.063375  -4.678955  7.116343
H    -4.139708  -2.977417  6.822199
H    -2.716070  -5.965739  5.588047
H    -1.175917  -5.297873  5.202740
O    2.861696  0.284807  2.347006
H    -1.559869  0.631968  1.707996
Hg    4.267957  1.118882  0.694484
