28
Energy: -569909.7436777  eV PBE+vdW (tier 2 basis)
N    -0.154913  1.820755  1.719330
C    0.043832  0.404745  2.085118
C    1.355455  -0.148167  1.464077
O    2.260598  0.545390  0.991711
H    -0.754330  1.939867  0.892942
H    -0.543514  2.378575  2.487807
H    0.227994  0.376997  3.172762
C    -1.231901  -0.443577  1.726847
C    -1.467379  -1.651987  2.657710
C    -2.748010  -2.434353  2.226157
N    -2.933905  -3.650142  3.002005
C    -3.990237  -3.995199  3.794583
N    -4.141988  -5.281855  4.112560
N    -4.848618  -3.077876  4.237933
H    -1.168807  -0.760839  0.675639
H    -2.094724  0.234161  1.805795
H    -1.584160  -1.323541  3.701300
H    -0.604652  -2.330265  2.626699
H    -2.650633  -2.731165  1.169219
H    -3.649043  -1.813012  2.296000
H    -2.247629  -4.388405  2.852364
H    -3.672270  -6.025556  3.602975
H    -5.711094  -3.350473  4.702933
H    -4.633832  -2.088419  4.238250
H    -4.822214  -5.578539  4.809011
O    1.433957  -1.452789  1.534057
H    2.297666  -1.779493  1.187265
Hg    1.886350  2.874164  1.078948
