28
Energy: -569909.9935315  eV PBE+vdW (tier 2 basis)
N    -0.546387  1.126893  1.776886
C    0.528933  0.366627  2.547234
C    1.896760  0.609606  1.815318
O    1.895419  1.424183  0.859475
H    -0.790784  0.657722  0.890010
H    -0.218750  2.075168  1.525360
H    0.631604  0.885809  3.513766
C    0.199838  -1.118709  2.741069
C    -1.010018  -1.397007  3.660826
C    -1.151430  -2.925873  3.926157
N    -2.354253  -3.266372  4.674359
C    -2.439132  -3.883032  5.886578
N    -3.587147  -4.479579  6.212708
N    -1.406876  -3.892440  6.730478
H    1.108581  -1.564205  3.172002
H    0.062322  -1.601556  1.759610
H    -1.947963  -1.044722  3.203001
H    -0.898539  -0.868725  4.619897
H    -0.273533  -3.315596  4.456038
H    -1.198235  -3.458393  2.962603
H    -3.237228  -3.176563  4.175135
H    -3.763424  -4.808480  7.159089
H    -4.289902  -4.717910  5.518424
H    -1.420015  -4.474177  7.564127
H    -0.637044  -3.239593  6.652480
O    2.900496  0.000814  2.273628
H    -1.409281  1.225851  2.332593
Hg    4.300986  1.047256  0.728148
