28
Energy: -569909.8489997  eV PBE+vdW (tier 2 basis)
N    1.142320  -1.684982  0.362104
C    0.671050  -0.387962  1.010836
C    1.926187  0.487248  1.327511
O    3.006513  0.159175  0.771102
H    1.874976  -1.494673  -0.343507
H    0.358934  -2.164017  -0.110541
H    0.179976  0.175205  0.199225
C    -0.358292  -0.591622  2.130404
C    0.057420  -1.338830  3.413733
C    -1.128696  -1.369809  4.402582
N    -0.810954  -2.112327  5.621481
C    -1.724275  -2.632307  6.485262
N    -1.287493  -3.423084  7.472754
N    -3.023845  -2.380609  6.343688
H    -1.224716  -1.093242  1.666906
H    -0.707516  0.420696  2.383101
H    0.914739  -0.832924  3.885287
H    0.357591  -2.376884  3.199411
H    -1.998085  -1.852165  3.929783
H    -1.418407  -0.333663  4.655505
H    0.151391  -2.093855  5.951184
H    -1.898972  -3.703464  8.236276
H    -0.356027  -3.828313  7.469228
H    -3.715866  -2.882641  6.894357
H    -3.367620  -1.587220  5.814427
O    1.743223  1.512049  2.039998
H    1.550927  -2.344762  1.040848
Hg    3.930518  2.228981  1.617053
