28
Energy: -569909.0958419  eV PBE+vdW (tier 2 basis)
N    1.108668  -1.087854  -0.344420
C    0.265166  -0.348736  0.610064
C    1.046860  0.814938  1.323223
O    2.278251  0.924482  1.323117
H    1.137981  -2.097010  -0.172359
H    0.852589  -0.926577  -1.324666
H    -0.509457  0.169169  0.017504
C    -0.396354  -1.267428  1.682446
C    -1.498393  -2.191433  1.101537
C    -2.569662  -2.685332  2.096612
N    -2.181113  -3.823866  2.930228
C    -3.059610  -4.686469  3.515299
N    -4.368412  -4.453704  3.493202
N    -2.574108  -5.787701  4.102840
H    -0.838299  -0.613753  2.449034
H    0.393959  -1.832939  2.202620
H    -1.067302  -3.056031  0.574435
H    -2.065242  -1.628510  0.344637
H    -3.442274  -3.000293  1.504898
H    -2.901506  -1.845160  2.735209
H    -1.213230  -3.910558  3.227734
H    -5.031957  -5.167303  3.785570
H    -3.164921  -6.381842  4.681180
H    -1.634239  -6.128419  3.922681
H    -4.758243  -3.536896  3.304106
O    0.366937  1.710433  1.980337
H    -0.607424  1.646980  1.904703
Hg    3.414336  -0.394186  -0.182768
