23
Energy: -15542.7781102 eV PBE+vdW (tier 2 basis)
C    -0.078414  0.170138  0.094207
C    -0.110566  -0.244438  1.551608
O    0.892209  -0.596181  2.162578
H    0.965947  0.219074  -0.223695
H    -0.562451  1.140905  -0.076236
H    -0.603476  -0.569203  -0.528098
N    -1.338095  -0.192263  2.192196
C    -2.639375  -0.031128  1.556622
C    -3.035401  1.431866  1.245271
O    -3.968179  1.672483  0.482432
H    -1.329585  -0.687868  3.081381
H    -2.678131  -0.565832  0.594957
C    -3.727842  -0.617800  2.456507
O    -3.419464  -1.994963  2.678564
H    -4.694055  -0.484991  1.947245
H    -3.755149  -0.058202  3.411012
H    -4.116249  -2.377333  3.232243
N    -2.304825  2.371528  1.898348
C    -2.533542  3.794129  1.747386
H    -1.545461  2.030682  2.480623
H    -2.796885  4.258168  2.707974
H    -3.367038  3.924756  1.048688
H    -1.644699  4.298550  1.343405
