23
Energy: -15542.683414 eV PBE+vdW (tier 2 basis)
C    0.024165  0.141587  0.056009
C    -0.036167  0.170819  1.570350
O    0.972573  0.411964  2.241267
H    0.534876  1.046025  -0.293793
H    -0.957763  0.069873  -0.427240
H    0.633122  -0.718512  -0.252060
N    -1.264227  -0.077786  2.110816
C    -1.549435  -0.308409  3.536958
C    -3.058369  -0.529269  3.734521
O    -3.462673  -1.541762  4.298665
H    -1.988471  -0.369750  1.463227
H    -1.094220  -1.257849  3.855019
C    -0.995926  0.779665  4.500962
O    0.341462  0.563398  4.877168
H    -1.594534  0.740082  5.422825
H    -1.139908  1.778392  4.048074
H    0.843719  0.524684  4.028693
N    -3.942060  0.403605  3.245881
C    -3.707900  1.789947  2.862945
H    -4.900757  0.153993  3.476439
H    -4.485187  2.100680  2.154042
H    -2.738364  1.894109  2.366278
H    -3.731133  2.472701  3.726375
