23
Energy: -15542.4708723 eV PBE+vdW (tier 2 basis)
C    -0.478143  -0.088812  -0.138857
C    -0.276624  -0.494609  1.311809
O    0.539357  -1.356091  1.630597
H    0.501010  -0.010818  -0.623558
H    -1.024379  0.854195  -0.268384
H    -1.036929  -0.887013  -0.646011
N    -1.070332  0.181921  2.204437
C    -1.330937  -0.107052  3.615419
C    -0.679160  0.835363  4.660533
O    -1.388818  1.242915  5.583210
H    -1.696483  0.865242  1.796821
H    -2.396380  0.119789  3.767859
C    -1.149595  -1.583109  4.031889
O    -2.023457  -2.457123  3.324016
H    -1.319694  -1.630063  5.119889
H    -0.136433  -1.931606  3.813982
H    -2.920296  -2.334001  3.671847
N    0.635702  1.175954  4.584391
C    1.665631  0.800112  3.629132
H    0.898814  1.816574  5.328000
H    2.630634  0.766180  4.149126
H    1.743121  1.521787  2.800740
H    1.476592  -0.189906  3.201079
