23
Energy: -15542.6729426 eV PBE+vdW (tier 2 basis)
C    0.767885  0.512400  0.534955
C    0.162888  -0.365158  1.617248
O    0.828561  -0.819924  2.537587
H    1.304106  1.339388  1.015085
H    0.034759  0.923777  -0.170027
H    1.507819  -0.077114  -0.021536
N    -1.195697  -0.592106  1.485277
C    -1.907079  -1.591335  2.281611
C    -3.356412  -1.757864  1.833458
O    -3.973062  -2.791241  2.103429
H    -1.568628  -0.423505  0.555871
H    -1.424950  -2.578000  2.199162
C    -1.959381  -1.228735  3.795564
O    -2.496472  -2.283755  4.567831
H    -2.540047  -0.291328  3.911584
H    -0.936841  -1.050219  4.144730
H    -3.238930  -2.676997  4.068874
N    -3.933566  -0.691233  1.205503
C    -5.352757  -0.672874  0.888731
H    -3.440004  0.194866  1.242880
H    -5.526668  -0.050207  0.003719
H    -5.956117  -0.288936  1.725093
H    -5.672779  -1.698834  0.681622
