23
Energy: -15542.7524949 eV PBE+vdW (tier 2 basis)
C    0.313062  0.687538  0.690192
C    -0.117943  0.749312  2.141470
O    0.697131  0.839971  3.062308
H    0.871847  1.601171  0.452242
H    -0.520917  0.586222  -0.014795
H    0.998137  -0.159215  0.560983
N    -1.465967  0.700862  2.355885
C    -2.048418  0.786097  3.683404
C    -2.623450  -0.588097  4.081950
O    -3.674073  -0.990449  3.579361
H    -2.095493  0.604245  1.567285
H    -1.222413  1.081467  4.343690
C    -3.163056  1.841894  3.751408
O    -2.740142  3.129106  3.319122
H    -3.561275  1.863216  4.781779
H    -3.989678  1.549470  3.091501
H    -2.010343  3.422474  3.886881
N    -1.919306  -1.332076  4.978001
C    -0.651947  -1.023837  5.629674
H    -2.363444  -2.219986  5.194077
H    -0.165204  -1.966317  5.905446
H    -0.789511  -0.430842  6.547441
H    0.021401  -0.486227  4.950695
