23
Energy: -15542.5793838 eV PBE+vdW (tier 2 basis)
C    -0.002266  0.017038  -0.006632
C    -0.341911  0.533487  1.379939
O    -0.229703  1.716598  1.689131
H    0.991969  0.383751  -0.287720
H    -0.720109  0.438294  -0.722484
H    -0.020733  -1.076731  -0.088165
N    -0.756594  -0.417396  2.275480
C    -1.340465  -0.060824  3.560297
C    -0.513858  0.841698  4.503900
O    -1.120991  1.636301  5.217224
H    -1.017005  -1.335255  1.926428
H    -2.264842  0.517036  3.405638
C    -1.690269  -1.343756  4.316165
O    -2.499934  -2.150797  3.450359
H    -2.229100  -1.064170  5.234248
H    -0.767994  -1.883051  4.598371
H    -2.731979  -2.965006  3.920584
N    0.835541  0.668987  4.636231
C    1.775154  -0.127022  3.863801
H    1.231191  1.358355  5.268641
H    2.018838  0.331817  2.893484
H    1.392371  -1.136975  3.684037
H    2.700179  -0.219734  4.445178
