23
Energy: -15542.7766156 eV PBE+vdW (tier 2 basis)
C    -0.768514  -0.081428  0.229152
C    -0.548826  0.298401  1.682104
O    0.402031  0.979025  2.046690
H    -0.118911  -0.936137  -0.005291
H    -0.462394  0.754781  -0.407741
H    -1.804549  -0.359466  -0.003006
N    -1.518100  -0.161487  2.551096
C    -1.359258  -0.202156  4.005292
C    -0.708907  1.085264  4.566631
O    0.234211  1.028963  5.354270
H    -2.202768  -0.802534  2.164729
H    -2.376992  -0.245245  4.431021
C    -0.608972  -1.448874  4.506888
O    0.722546  -1.538369  4.043025
H    -1.129372  -2.347462  4.142442
H    -0.663158  -1.451368  5.610454
H    1.169644  -0.739899  4.380740
N    -1.331191  2.244695  4.219140
C    -0.724990  3.532731  4.511214
H    -1.966895  2.193973  3.430276
H    -0.288971  3.497268  5.514646
H    -1.492810  4.313978  4.479339
H    0.075149  3.775347  3.794889
