23
Energy: -15542.6934788 eV PBE+vdW (tier 2 basis)
C    0.782559  -0.440794  1.159425
C    -0.054517  0.579365  1.913285
O    0.419562  1.632953  2.325564
H    1.828103  -0.129382  1.227832
H    0.498007  -0.463197  0.096669
H    0.671472  -1.457528  1.557540
N    -1.380559  0.274265  2.135386
C    -2.149180  -0.820848  1.577457
C    -3.459056  -0.259009  1.001691
O    -3.971861  0.748870  1.484843
H    -1.943576  1.044437  2.498652
H    -1.556265  -1.320663  0.802247
C    -2.494728  -1.862285  2.674163
O    -1.331104  -2.392057  3.287710
H    -3.029321  -2.716101  2.235672
H    -3.162855  -1.384538  3.412083
H    -0.888856  -1.653143  3.738938
N    -4.050898  -0.961528  -0.005931
C    -3.504412  -2.086087  -0.750557
H    -4.923247  -0.552461  -0.326286
H    -4.261641  -2.425493  -1.464645
H    -3.264562  -2.936630  -0.097962
H    -2.603369  -1.813164  -1.320501
