23
Energy: -15542.7941821 eV PBE+vdW (tier 2 basis)
C    -0.004121  -0.083389  0.159406
C    0.018796  -0.113451  1.679399
O    1.062874  0.001515  2.313757
H    -0.510781  0.822604  -0.204697
H    -0.522340  -0.948013  -0.276680
H    1.030601  -0.069651  -0.192384
N    -1.185009  -0.271542  2.324533
C    -2.507646  -0.264665  1.746818
C    -3.468093  0.339587  2.803631
O    -3.069861  0.647224  3.926123
H    -1.174850  -0.096217  3.331463
H    -2.545247  0.369613  0.845595
C    -2.952381  -1.680053  1.324994
O    -4.083441  -1.548560  0.448655
H    -3.202156  -2.274584  2.220076
H    -2.114393  -2.172851  0.807165
H    -4.453461  -2.428972  0.287958
N    -4.748401  0.487323  2.379782
C    -5.805551  0.964473  3.252367
H    -4.988419  0.056249  1.489632
H    -6.411037  0.137773  3.654067
H    -6.463133  1.652981  2.707323
H    -5.343951  1.493607  4.092018
