23
Energy: -15542.320705 eV PBE+vdW (tier 2 basis)
C    0.143297  0.122629  -0.538130
C    0.236463  -0.306418  0.908721
O    1.297251  -0.709146  1.385523
H    1.160478  0.132052  -0.938530
H    -0.312626  1.113974  -0.643581
H    -0.449746  -0.591902  -1.125860
N    -0.871742  -0.252670  1.733638
C    -2.291684  0.065857  1.609648
C    -3.240612  -1.122484  1.924833
O    -4.226574  -0.915578  2.631656
H    -0.606159  -0.550398  2.670168
H    -2.534361  0.761709  2.430005
C    -2.782150  0.753633  0.325504
O    -2.239376  2.054483  0.122534
H    -3.881703  0.785446  0.392108
H    -2.525814  0.177528  -0.571446
H    -2.566219  2.634694  0.827838
N    -2.984475  -2.361972  1.416080
C    -1.957800  -2.814115  0.487313
H    -3.676787  -3.042648  1.713297
H    -1.898874  -2.172641  -0.401129
H    -2.233624  -3.817002  0.143895
H    -0.963237  -2.868055  0.948780
