23
Energy: -15542.6529072 eV PBE+vdW (tier 2 basis)
C    -0.060793  -0.773029  -0.038496
C    0.108669  -0.639831  1.465194
O    1.154163  -0.953548  2.027935
H    0.916748  -1.016525  -0.462668
H    -0.432620  0.150167  -0.505341
H    -0.765918  -1.581416  -0.271042
N    -0.950468  -0.149266  2.187364
C    -2.261770  0.266279  1.742534
C    -2.708867  1.443057  2.629895
O    -2.443427  1.463035  3.828957
H    -0.783978  -0.044880  3.187743
H    -2.207046  0.587464  0.690689
C    -3.328285  -0.855371  1.865163
O    -3.067866  -1.975622  1.028065
H    -4.330162  -0.431809  1.672451
H    -3.313082  -1.231526  2.896512
H    -3.345262  -1.756862  0.125512
N    -3.449933  2.398027  2.000902
C    -4.009204  3.544292  2.695836
H    -3.573966  2.326839  0.998404
H    -5.100416  3.584242  2.577152
H    -3.574252  4.483811  2.328183
H    -3.767534  3.434641  3.757962
