23
Energy: -15543.0780992 eV PBE+vdW (tier 2 basis)
C    0.162465  -0.780253  0.283535
C    -0.057849  -0.207931  1.668128
O    0.909509  0.033623  2.405370
H    0.841470  -1.637167  0.359756
H    0.661225  -0.018976  -0.330657
H    -0.760126  -1.091494  -0.219879
N    -1.358630  -0.011588  2.015186
C    -1.877264  0.717016  3.186427
C    -2.055069  2.209617  2.791046
O    -2.872603  2.500056  1.915154
H    -2.035933  -0.114969  1.267052
H    -2.908062  0.351227  3.308619
C    -1.166527  0.405635  4.516117
O    0.095684  1.029470  4.707241
H    -1.086376  -0.691762  4.614157
H    -1.819972  0.761123  5.325290
H    0.639429  0.707872  3.936290
N    -1.273008  3.090080  3.454545
C    -1.297594  4.513808  3.182249
H    -0.564532  2.683489  4.076840
H    -2.151732  4.724858  2.530445
H    -0.377647  4.839412  2.674652
H    -1.402859  5.082853  4.115435
