23
Energy: -15542.4726028 eV PBE+vdW (tier 2 basis)
C    -0.030106  -0.074227  -0.001764
C    -0.037477  -0.146767  1.514598
O    0.940863  -0.497904  2.162930
H    0.831848  0.523514  -0.320522
H    -0.943147  0.356350  -0.431694
H    0.108607  -1.087269  -0.400862
N    -1.223332  0.226156  2.111135
C    -1.456928  0.001623  3.535364
C    -2.936593  0.014354  3.918651
O    -3.334992  -0.757991  4.792786
H    -2.038594  0.279738  1.511116
H    -1.088708  -0.997763  3.810449
C    -0.703249  1.009097  4.446591
O    -0.758132  0.626182  5.810090
H    -1.108355  2.027931  4.295883
H    0.352571  1.010206  4.150668
H    -1.634517  0.241555  5.992636
N    -3.806937  0.888844  3.312086
C    -3.534389  2.190436  2.708028
H    -4.742664  0.776166  3.697475
H    -4.199556  2.352879  1.849429
H    -2.500574  2.247332  2.357906
H    -3.690853  3.005674  3.430817
