23
Energy: -15542.6246764 eV PBE+vdW (tier 2 basis)
C    -1.078371  -0.416469  -0.008810
C    -0.963256  -0.583064  1.492668
O    -0.340517  -1.516320  1.992195
H    -0.139230  -0.759614  -0.454587
H    -1.286538  0.604906  -0.338427
H    -1.877461  -1.078612  -0.371628
N    -1.648354  0.291713  2.328422
C    -2.201712  1.619450  2.064894
C    -3.295623  1.653798  0.966287
O    -3.495532  2.660180  0.294209
H    -1.474368  0.063193  3.304398
H    -2.753990  1.890406  2.981606
C    -1.143422  2.731236  1.888223
O    -0.138720  2.449237  0.923234
H    -0.692884  2.941968  2.872869
H    -1.666296  3.630992  1.541107
H    0.514488  1.856702  1.325862
N    -4.054345  0.526281  0.895572
C    -5.136138  0.368148  -0.055704
H    -3.769380  -0.261422  1.467119
H    -5.320362  1.344103  -0.516894
H    -6.051039  0.028114  0.447029
H    -4.877124  -0.351921  -0.846277
