23
Energy: -15542.8153237 eV PBE+vdW (tier 2 basis)
C    -2.349675  -0.982741  1.167788
C    -1.468322  -0.926439  2.402242
O    -1.426915  -1.834768  3.222642
H    -2.021450  -1.822315  0.541917
H    -2.335580  -0.065342  0.565820
H    -3.380065  -1.194047  1.477874
N    -0.722266  0.227315  2.537730
C    0.259818  0.427923  3.594544
C    -0.150336  1.457961  4.670793
O    0.687064  1.933676  5.433191
H    -0.798165  0.938494  1.817286
H    0.344220  -0.543969  4.107126
C    1.626809  0.792737  3.000602
O    2.194396  -0.262118  2.236225
H    2.318350  1.002205  3.822698
H    1.533363  1.720514  2.400831
H    1.543379  -0.540637  1.572117
N    -1.475888  1.764042  4.711919
C    -2.045604  2.622784  5.732080
H    -2.090582  1.257049  4.086063
H    -1.215984  3.091582  6.271861
H    -2.652584  2.049618  6.447818
H    -2.670983  3.404476  5.280830
