23
Energy: -15542.656533 eV PBE+vdW (tier 2 basis)
C    -1.207820  -0.994818  0.784989
C    -0.090172  -0.278723  1.527353
O    0.895021  -0.876050  1.951056
H    -1.255134  -0.671067  -0.265062
H    -2.194583  -0.816474  1.233475
H    -0.992458  -2.066052  0.810333
N    -0.216733  1.077805  1.693112
C    -1.299086  1.938642  1.264473
C    -0.694956  3.314950  0.942259
O    0.242108  3.751735  1.610821
H    0.561858  1.550959  2.150527
H    -1.789819  1.509737  0.382168
C    -2.355984  2.089977  2.394630
O    -3.485785  2.876842  2.024669
H    -1.852029  2.486886  3.290705
H    -2.738650  1.090093  2.639005
H    -3.256021  3.811902  2.136980
N    -1.272909  4.047158  -0.051808
C    -2.272183  3.615909  -1.022744
H    -0.799842  4.930955  -0.218435
H    -2.626297  4.499442  -1.564694
H    -3.136018  3.163233  -0.523196
H    -1.861894  2.907195  -1.758873
