23
Energy: -15542.4743177 eV PBE+vdW (tier 2 basis)
C    0.416367  0.819603  0.858914
C    -0.047663  0.024199  2.063817
O    0.611133  -0.024671  3.103697
H    1.418825  0.475992  0.576757
H    0.498645  1.874653  1.148736
H    -0.247510  0.739753  -0.010275
N    -1.235039  -0.629791  1.912579
C    -1.879463  -1.416187  2.961759
C    -2.369609  -0.489054  4.115133
O    -3.325292  0.248144  3.867497
H    -1.746744  -0.496810  1.050898
H    -2.842010  -1.725072  2.527406
C    -1.118260  -2.717208  3.274014
O    -1.133113  -3.610225  2.157993
H    -1.559744  -3.192478  4.166569
H    -0.061497  -2.517803  3.475140
H    -2.031323  -3.962901  2.060575
N    -1.822634  -0.525426  5.361800
C    -0.568669  -1.096021  5.839944
H    -2.300285  0.120555  5.983783
H    -0.669391  -2.156321  6.114853
H    -0.269911  -0.545256  6.738662
H    0.219344  -0.970761  5.089058
