23
Energy: -15543.0692966 eV PBE+vdW (tier 2 basis)
C    -0.619962  -0.126725  -0.099842
C    -0.452049  -0.413537  1.376594
O    0.407983  -1.197820  1.795581
H    0.312391  0.311476  -0.478070
H    -1.449101  0.554122  -0.326983
H    -0.774333  -1.073961  -0.630487
N    -1.301949  0.243577  2.214358
C    -1.224044  0.178587  3.671269
C    -1.898169  -1.094697  4.250014
O    -2.873358  -1.024366  5.010248
H    -2.037962  0.814882  1.812999
H    -0.158218  0.145577  3.945038
C    -1.864587  1.447500  4.257323
O    -1.858212  1.453624  5.667956
H    -2.895321  1.542435  3.858748
H    -1.290880  2.323052  3.921666
H    -2.395986  0.672081  5.913761
N    -1.309343  -2.247840  3.866268
C    -1.784226  -3.553664  4.280450
H    -0.521411  -2.164832  3.214830
H    -0.971435  -4.132132  4.739520
H    -2.181733  -4.122553  3.427596
H    -2.583699  -3.411384  5.014727
