23
Energy: -15542.6347479 eV PBE+vdW (tier 2 basis)
C    0.022185  -0.438498  0.313770
C    -0.174344  -0.027783  1.761763
O    0.767526  0.249290  2.499109
H    1.097444  -0.525120  0.137985
H    -0.383289  0.317636  -0.373567
H    -0.468279  -1.393837  0.087219
N    -1.466566  0.030686  2.239247
C    -2.717151  -0.274621  1.551334
C    -3.742099  0.827797  1.883895
O    -4.579095  0.673817  2.772029
H    -1.526859  0.303546  3.218342
H    -2.509836  -0.284349  0.473716
C    -3.269325  -1.656073  1.943806
O    -2.360717  -2.700971  1.605577
H    -4.192147  -1.851205  1.381831
H    -3.526501  -1.661775  3.013925
H    -1.624297  -2.667454  2.236212
N    -3.661165  1.987331  1.167572
C    -2.663567  2.364060  0.179295
H    -4.315421  2.697757  1.481363
H    -2.944815  3.334917  -0.241440
H    -2.624814  1.646736  -0.652363
H    -1.657461  2.456897  0.614181
