23
Energy: -15542.5818526 eV PBE+vdW (tier 2 basis)
C    -0.809871  1.174407  1.005436
C    0.365889  0.342042  1.478094
O    1.514024  0.777297  1.507888
H    -0.418251  2.085559  0.546406
H    -1.455472  1.452666  1.850768
H    -1.441840  0.638948  0.283852
N    0.093684  -0.936149  1.911728
C    -1.162790  -1.655048  1.835193
C    -2.354780  -1.082198  2.632985
O    -3.483199  -1.164128  2.149782
H    0.925435  -1.492581  2.098397
H    -1.542881  -1.680802  0.799073
C    -0.945341  -3.113715  2.291888
O    0.142264  -3.747000  1.626771
H    -1.891901  -3.660048  2.158746
H    -0.685392  -3.142203  3.359387
H    -0.091850  -3.863658  0.692206
N    -2.153115  -0.542325  3.871266
C    -0.935315  -0.356121  4.650754
H    -3.020421  -0.207074  4.279586
H    -0.302808  -1.250658  4.642580
H    -1.228286  -0.167536  5.689883
H    -0.331533  0.492392  4.300041
