23
Energy: -15542.51168 eV PBE+vdW (tier 2 basis)
C    -0.010630  0.054531  0.026295
C    -0.123073  -0.503355  1.433919
O    0.763699  -1.182230  1.942503
H    0.844123  -0.422157  -0.460276
H    0.159478  1.139704  0.061000
H    -0.914833  -0.125558  -0.572909
N    -1.270252  -0.209157  2.129909
C    -2.425650  0.526329  1.674033
C    -2.110738  2.012182  1.369955
O    -1.318621  2.651988  2.050891
H    -1.313174  -0.614585  3.060843
H    -2.852312  0.043497  0.776486
C    -3.500773  0.524762  2.781676
O    -3.793820  -0.770270  3.290036
H    -4.405288  1.032245  2.404165
H    -3.123122  1.101545  3.636754
H    -4.164195  -1.312806  2.575960
N    -2.799322  2.584565  0.335294
C    -3.726885  1.960872  -0.595074
H    -2.579626  3.566940  0.204786
H    -4.085573  2.728841  -1.288478
H    -4.607891  1.538947  -0.089716
H    -3.250134  1.170022  -1.193583
