23
Energy: -15542.7683032 eV PBE+vdW (tier 2 basis)
C    -0.326860  -0.305297  0.169066
C    -0.498239  0.672313  1.313349
O    -0.028478  1.804531  1.290637
H    0.310904  -1.145248  0.477150
H    0.153486  0.226428  -0.656210
H    -1.285548  -0.716991  -0.175406
N    -1.245765  0.256904  2.403466
C    -1.648628  -1.100732  2.737642
C    -3.140965  -1.220995  3.131569
O    -3.571275  -2.234108  3.679101
H    -1.162082  0.909923  3.181657
H    -1.533886  -1.715661  1.833388
C    -0.765180  -1.728673  3.815867
O    0.544074  -1.863964  3.259192
H    -1.200503  -2.697971  4.099220
H    -0.755439  -1.078352  4.711101
H    1.123920  -2.245787  3.933969
N    -3.903279  -0.149273  2.792328
C    -5.333627  -0.099089  3.018644
H    -3.428763  0.617467  2.325254
H    -5.886220  -0.051807  2.069651
H    -5.605832  0.771899  3.630135
H    -5.618794  -1.013552  3.549924
