23
Energy: -15542.6823104 eV PBE+vdW (tier 2 basis)
C    -0.599904  1.018131  0.257778
C    -0.153755  0.597290  1.645568
O    0.835727  1.091563  2.175085
H    -0.387489  2.086084  0.147704
H    -1.653008  0.825211  0.028159
H    0.007265  0.479161  -0.483053
N    -0.839625  -0.423867  2.284739
C    -2.182058  -0.935428  2.006020
C    -2.320807  -1.614134  0.623633
O    -3.383447  -1.611807  0.006263
H    -0.517532  -0.535847  3.242700
H    -2.334319  -1.746532  2.737904
C    -3.308085  0.066417  2.266460
O    -3.255962  0.373185  3.663375
H    -4.262201  -0.399384  1.979384
H    -3.171652  0.973471  1.653800
H    -3.928136  1.043771  3.851994
N    -1.194597  -2.249429  0.203431
C    -1.115415  -2.957016  -1.058409
H    -0.362325  -2.132529  0.772227
H    -0.774379  -3.990166  -0.908613
H    -0.430214  -2.456110  -1.757852
H    -2.119163  -2.971084  -1.496157
