23
Energy: -15542.5449823 eV PBE+vdW (tier 2 basis)
C    -0.402644  0.086879  0.212748
C    -0.419781  -0.844757  1.410297
O    -0.087078  -2.023083  1.324349
H    0.169289  1.006214  0.399959
H    -1.426706  0.372621  -0.060554
H    0.054427  -0.452763  -0.620636
N    -0.812478  -0.323950  2.623076
C    -1.345883  0.995835  2.932582
C    -0.751487  1.451442  4.281320
O    -1.397235  1.370415  5.325080
H    -0.868144  -1.025061  3.359140
H    -1.018549  1.682786  2.139079
C    -2.883808  1.022480  2.997652
O    -3.478098  0.716852  1.735030
H    -3.218095  1.999078  3.381932
H    -3.230980  0.259751  3.705246
H    -3.542183  1.535879  1.222014
N    0.530450  1.921615  4.263958
C    1.447824  1.984644  3.137616
H    0.890763  2.137718  5.188292
H    1.046572  2.600176  2.319608
H    1.692075  0.988304  2.742115
H    2.375688  2.457703  3.475109
