23
Energy: -15543.0747925 eV PBE+vdW (tier 2 basis)
C    -0.232655  -0.266306  -0.112241
C    -0.126843  0.173414  1.332499
O    0.978320  0.324373  1.876144
H    0.199831  -1.270953  -0.204223
H    0.370868  0.407168  -0.732197
H    -1.261301  -0.286151  -0.490422
N    -1.303375  0.374334  1.972469
C    -1.452346  0.717088  3.375714
C    -2.970995  0.729585  3.637995
O    -3.784570  0.690334  2.712937
H    -2.196290  0.295319  1.483590
H    -0.989989  -0.066789  4.001576
C    -0.765767  2.056825  3.770505
O    0.600357  1.899541  4.073184
H    -1.245795  2.466340  4.671924
H    -0.940860  2.777306  2.948296
H    0.980520  1.364898  3.331994
N    -3.324082  0.787157  4.947450
C    -4.704110  0.839532  5.394415
H    -2.586324  0.801918  5.642233
H    -4.935888  -0.007561  6.054050
H    -5.343313  0.786181  4.507621
H    -4.913000  1.776063  5.929695
