23
Energy: -15542.5397569 eV PBE+vdW (tier 2 basis)
C    -0.440225  0.330965  0.082071
C    -0.282006  0.073926  1.567560
O    0.816709  0.066808  2.119283
H    0.344492  -0.209209  -0.458316
H    -0.292056  1.404025  -0.100959
H    -1.421873  0.041802  -0.312496
N    -1.449881  -0.152797  2.252752
C    -1.506704  -0.191980  3.718865
C    -1.063615  1.181378  4.298826
O    -1.772468  2.151495  4.026181
H    -2.314413  0.071664  1.774809
H    -2.578998  -0.207637  3.960263
C    -0.953223  -1.520460  4.257092
O    -1.768216  -2.611011  3.824569
H    -1.011218  -1.522891  5.353503
H    0.092712  -1.672848  3.958549
H    -1.705066  -2.643120  2.856158
N    0.008178  1.311924  5.129694
C    1.156776  0.436277  5.335123
H    0.111184  2.276366  5.432369
H    0.946624  -0.367762  6.054347
H    1.969852  1.043619  5.747020
H    1.496118  0.010345  4.383554
