27
Energy: -570008.103882 eV PBE+vdW (tier 2 basis)
C    -0.053191  0.554325  -0.031726
C    -0.005945  0.543331  1.463366
O    1.135833  0.657741  2.016894
H    -1.057530  0.358975  -0.424766
H    0.636386  -0.215598  -0.406936
H    0.315549  1.520192  -0.403697
N    -1.155299  0.385697  2.148000
C    -1.299869  0.060505  3.565077
C    -2.266002  -1.177042  3.709710
O    -1.792884  -2.121991  4.331230
H    -1.991800  0.346526  1.568738
H    -0.343917  -0.359688  3.901242
C    -1.652386  1.234638  4.517303
O    -0.343700  1.695932  5.044685
C    -2.510688  0.883051  5.721372
H    -2.103930  2.053345  3.938095
H    -0.505111  2.314909  5.785908
H    -3.527020  0.615808  5.401285
H    -2.624577  1.756045  6.379668
H    -2.084805  0.053572  6.298665
N    -3.489405  -1.194544  3.144096
C    -4.328319  -0.089640  2.682278
H    -3.968422  -2.088445  3.276793
H    -5.196567  0.032312  3.343589
H    -4.698023  -0.304782  1.670527
H    -3.782115  0.859637  2.675099
Hg    1.625736  2.023186  3.717509
