27
Energy: -570009.196065 eV PBE+vdW (tier 2 basis)
C    -0.248231  -0.146465  0.122733
C    -0.103617  0.051440  1.602481
O    0.980278  0.584349  1.989944
H    -1.264580  -0.427477  -0.175609
H    0.454215  -0.931629  -0.192958
H    0.045779  0.775495  -0.394215
N    -1.137520  -0.332295  2.379385
C    -1.341353  -0.332810  3.842042
C    -1.169413  1.060068  4.491982
O    -0.097949  1.427840  5.086965
H    -1.904717  -0.742638  1.853746
H    -2.408826  -0.564898  3.956044
C    -0.644663  -1.489244  4.616899
O    0.775307  -1.507744  4.257127
C    -1.250009  -2.847617  4.309119
H    -0.737648  -1.257403  5.690063
H    1.205312  -2.268221  4.693382
H    -0.733332  -3.634465  4.875584
H    -1.184584  -3.094403  3.241906
H    -2.302096  -2.880546  4.624697
N    -2.201313  1.889519  4.517487
C    -3.585459  1.668775  4.081886
H    -2.004768  2.778196  4.985178
H    -4.128123  1.033597  4.795157
H    -3.618674  1.234866  3.076845
H    -4.081415  2.643364  4.046053
Hg    1.737400  0.670344  4.082076
