27
Energy: -570008.969156 eV PBE+vdW (tier 2 basis)
C    0.117614  0.836296  -0.388366
C    -0.472050  0.744777  0.982532
O    -0.914764  1.851190  1.459776
H    0.845768  0.033553  -0.563970
H    0.585839  1.813603  -0.540689
H    -0.701735  0.726936  -1.117654
N    -0.499842  -0.453955  1.590385
C    -1.447193  -0.953962  2.610505
C    -0.897624  -0.864982  4.054284
O    -1.127243  0.171952  4.792905
H    -0.142987  -1.203204  0.994740
H    -2.354151  -0.322676  2.584790
C    -1.927436  -2.378567  2.191645
O    -2.157280  -2.251766  0.799376
C    -3.152540  -2.818714  2.981381
H    -1.092251  -3.095846  2.358400
H    -2.619531  -3.040359  0.466499
H    -3.442844  -3.833294  2.678702
H    -4.001960  -2.150087  2.789071
H    -2.966058  -2.854873  4.063568
N    -0.215300  -1.861918  4.569102
C    0.349782  -1.893968  5.924671
H    -0.134723  -2.711176  4.010122
H    0.605013  -0.878678  6.240853
H    1.243240  -2.525452  5.908644
H    -0.383115  -2.317919  6.624280
Hg    -1.493629  1.888088  3.530448
