27
Energy: -570008.952524 eV PBE+vdW (tier 2 basis)
C    -0.813656  1.172313  0.137538
C    -0.468252  0.479167  1.417736
O    0.528524  -0.319746  1.353442
H    -1.302339  2.139100  0.316746
H    -1.516101  0.526729  -0.414120
H    0.082048  1.311885  -0.475078
N    -1.213773  0.749870  2.505488
C    -1.546322  -0.042663  3.723083
C    -0.632560  0.259262  4.931034
O    0.565944  -0.193171  5.052752
H    -1.910489  1.467947  2.319503
H    -2.548410  0.319917  3.990728
C    -1.738518  -1.568526  3.465067
O    -2.383228  -1.652306  2.226553
C    -2.463333  -2.244356  4.623819
H    -0.725668  -2.077336  3.386446
H    -2.765595  -2.539851  2.103373
H    -2.575933  -3.317827  4.423420
H    -3.465071  -1.812939  4.756588
H    -1.902243  -2.154185  5.563907
N    -1.128453  0.993884  5.906042
C    -0.403562  1.366019  7.128261
H    -2.101156  1.286705  5.834673
H    -0.532126  0.588392  7.892771
H    -0.815069  2.309866  7.497658
H    0.660877  1.480436  6.903399
Hg    1.329182  -1.086612  3.212636
