27
Energy: -570008.915048 eV PBE+vdW (tier 2 basis)
C    0.585238  -1.072912  3.307509
C    0.035513  -0.174086  2.250176
O    0.689466  -0.143625  1.145747
H    1.624760  -0.794297  3.525608
H    0.610734  -2.099546  2.909209
H    -0.016203  -1.063807  4.223298
N    -1.079856  0.533809  2.505680
C    -2.115472  1.034036  1.580018
C    -2.024804  2.562879  1.325160
O    -0.895177  3.123964  1.010100
H    -1.405084  0.462038  3.469631
H    -1.956537  0.568870  0.589472
C    -3.492087  0.479096  2.091265
O    -4.452212  1.049749  1.200636
C    -3.812696  0.769901  3.558542
H    -3.438147  -0.611722  1.937551
H    -5.296897  0.571184  1.265640
H    -3.756451  1.836312  3.813492
H    -3.180783  0.202827  4.258761
H    -4.835803  0.430679  3.767302
N    -3.097008  3.310023  1.394407
C    -3.158493  4.743288  1.109202
H    -3.975817  2.798552  1.572468
H    -4.098803  4.948697  0.586755
H    -2.301178  5.044880  0.501357
H    -3.146796  5.306632  2.052767
Hg    0.504595  1.755576  0.112247
