27
Energy: -570008.617764 eV PBE+vdW (tier 2 basis)
C    -0.664822  -0.331755  0.192918
C    -0.320108  -0.136966  1.636578
O    0.886122  0.208845  1.873401
H    0.103833  -0.946200  -0.290933
H    -0.657615  0.651081  -0.302731
H    -1.652110  -0.790477  0.061821
N    -1.283829  -0.326816  2.557253
C    -1.279421  0.091680  3.956018
C    -0.614197  -0.935320  4.920961
O    0.534130  -0.627327  5.437515
H    -2.191924  -0.597299  2.181531
H    -0.611339  0.965157  4.039923
C    -2.671742  0.651351  4.443676
O    -2.669646  0.339390  5.830158
C    -3.916554  0.171927  3.701506
H    -2.605179  1.742745  4.299633
H    -3.192063  0.993648  6.324936
H    -4.795300  0.610066  4.193313
H    -4.055702  -0.914840  3.710856
H    -3.944464  0.545137  2.666918
N    -1.104972  -2.109128  5.259701
C    -2.420453  -2.702964  5.020200
H    -0.491877  -2.630135  5.893070
H    -3.160671  -2.282685  5.711309
H    -2.331203  -3.779653  5.194184
H    -2.733474  -2.541572  3.984480
Hg    1.743577  0.351110  3.901806
