27
Energy: -570008.229152 eV PBE+vdW (tier 2 basis)
C    -0.173125  -0.312881  0.108232
C    -0.132089  0.068903  1.553873
O    0.969566  -0.082995  2.173841
H    -1.176847  -0.229800  -0.324061
H    0.174612  -1.351828  0.013730
H    0.532951  0.311251  -0.456593
N    -1.258097  0.526940  2.137127
C    -1.522538  0.663444  3.569282
C    -2.887779  -0.062019  3.884847
O    -2.846420  -0.945482  4.727641
H    -2.049753  0.623894  1.503056
H    -0.791132  0.046553  4.105693
C    -1.453284  2.102466  4.138912
O    -0.057061  2.255831  4.617450
C    -2.357365  2.387026  5.326415
H    -1.628566  2.826847  3.328980
H    0.011503  3.094803  5.117021
H    -2.218182  1.657243  6.133110
H    -3.410584  2.380557  5.009911
H    -2.170703  3.396212  5.719991
N    -3.995229  0.297372  3.199264
C    -5.298920  -0.316883  3.473230
H    -4.000486  1.174094  2.682287
H    -5.797778  0.167168  4.324858
H    -5.144722  -1.374572  3.714707
H    -5.925451  -0.211152  2.581706
Hg    1.911478  1.452009  3.501490
