27
Energy: -570008.486985 eV PBE+vdW (tier 2 basis)
C    0.020446  -1.220298  0.976637
C    0.085349  -0.033319  1.864503
O    1.232866  0.448417  2.161459
H    0.501026  -1.007910  0.011623
H    -1.002197  -1.589259  0.844601
H    0.619182  -2.020200  1.444855
N    -1.024086  0.535515  2.399808
C    -2.230888  0.904328  1.676822
C    -2.154985  2.423408  1.363755
O    -1.227284  3.201873  1.797567
H    -0.837875  1.109086  3.225347
H    -2.238605  0.377981  0.710991
C    -3.528282  0.484919  2.433285
O    -4.575942  0.808937  1.515863
C    -3.710571  1.149957  3.793273
H    -3.457809  -0.609656  2.555440
H    -5.419851  0.419220  1.803914
H    -3.755740  2.244580  3.715430
H    -2.910668  0.863289  4.491069
H    -4.648699  0.807349  4.248212
N    -3.154135  2.939463  0.668318
C    -3.270011  4.328211  0.241206
H    -3.978355  2.321442  0.585189
H    -3.802630  4.348733  -0.716354
H    -2.278085  4.778739  0.148117
H    -3.855116  4.901516  0.976689
Hg    0.961358  2.692841  2.116445
