27
Energy: -570008.75299 eV PBE+vdW (tier 2 basis)
C    -0.566448  -1.763439  0.093572
C    -0.654634  -1.233847  1.490476
O    -0.395165  -2.099738  2.404281
H    -0.876866  -1.035384  -0.663449
H    -1.204509  -2.656149  0.018234
H    0.463440  -2.094823  -0.100723
N    -0.964483  0.065889  1.655438
C    -1.519470  0.949605  2.732334
C    -0.565140  1.490267  3.823435
O    0.003980  0.790137  4.759064
H    -1.027498  0.534676  0.754056
H    -1.789278  1.843718  2.157527
C    -2.911746  0.510148  3.313433
O    -3.271243  1.677341  4.034882
C    -3.001874  -0.750572  4.170529
H    -3.551923  0.372795  2.422689
H    -4.213165  1.653371  4.275627
H    -4.044293  -0.888629  4.494069
H    -2.427129  -0.658819  5.109056
H    -2.751175  -1.666686  3.616369
N    -0.391463  2.792428  3.868432
C    0.384902  3.500510  4.892419
H    -0.936927  3.364934  3.226498
H    0.716852  4.453945  4.471625
H    1.247690  2.895613  5.186093
H    -0.245112  3.687677  5.772574
Hg    0.013072  -1.275230  4.316416
