24
Energy: -169660.084205 eV PBE+vdW (tier 2 basis)
C    -0.341142  1.358135  -0.272409
C    -0.877020  0.415254  0.759463
O    -0.523934  0.480847  1.952738
H    -0.474220  2.387878  0.082455
H    -0.807050  1.239893  -1.256901
H    0.741709  1.190448  -0.363838
N    -1.787636  -0.522191  0.352459
C    -2.260947  -1.683975  1.107228
C    -2.990298  -1.412204  2.438513
O    -3.955148  -2.210379  2.798807
H    -2.073831  -0.490670  -0.621899
H    -3.024464  -2.145145  0.463863
C    -1.113910  -2.712348  1.279538
O    -1.678895  -4.022966  1.654653
H    -0.394868  -2.399490  2.047174
H    -0.608343  -2.835937  0.313793
H    -0.977240  -4.700066  1.630379
N    -2.659867  -0.393622  3.182616
C    -3.240744  -0.031589  4.472101
H    -1.827997  0.154340  2.813410
H    -3.772072  -0.877659  4.914162
H    -3.941241  0.803638  4.329518
H    -2.431827  0.307467  5.129477
Cd    -3.676017  -4.287661  2.673697
