24
Energy: -169660.054665 eV PBE+vdW (tier 2 basis)
C    0.773088  -0.584152  0.772252
C    0.059374  -0.579591  2.088407
O    0.518804  -1.125159  3.103409
H    1.184474  -1.582215  0.584247
H    1.623417  0.110478  0.844693
H    0.134908  -0.275200  -0.063581
N    -1.151498  0.066642  2.164908
C    -1.801284  0.326361  3.445103
C    -2.563659  -0.913201  3.991041
O    -3.843785  -0.947947  4.181922
H    -1.579867  0.402145  1.306217
H    -1.004656  0.536289  4.179235
C    -2.652745  1.588623  3.273765
O    -3.251267  1.964682  4.562323
H    -3.453265  1.451007  2.531971
H    -2.005757  2.411372  2.946713
H    -3.239451  2.933741  4.674085
N    -1.829480  -1.976507  4.220253
C    -2.295370  -3.265976  4.718794
H    -0.823432  -1.871720  3.951475
H    -2.382593  -3.974940  3.882971
H    -3.268937  -3.160824  5.203511
H    -1.550604  -3.652595  5.423910
Cd    -4.920244  0.574504  5.186366
