24
Energy: -169660.617906 eV PBE+vdW (tier 2 basis)
C    1.024364  0.888161  0.099828
C    0.313755  -0.082051  0.981500
O    1.010148  -0.683025  1.869227
H    1.440811  1.689535  0.728688
H    0.372617  1.332594  -0.660244
H    1.875419  0.388715  -0.381919
N    -1.008054  -0.263211  0.808028
C    -1.935521  -0.944962  1.712372
C    -2.030417  -2.474977  1.457926
O    -1.304525  -3.263377  2.184678
H    -1.428317  0.277168  0.053328
H    -1.528766  -0.874062  2.736550
C    -3.282433  -0.194656  1.777147
O    -4.138726  -1.038781  2.509819
H    -3.662350  0.017201  0.760684
H    -3.101155  0.773861  2.271466
H    -4.877321  -0.531751  2.886374
N    -2.797405  -3.039246  0.552892
C    -3.791327  -2.461422  -0.360639
H    -2.728478  -4.060054  0.545595
H    -3.397952  -1.569933  -0.858271
H    -4.715445  -2.228257  0.181914
H    -4.004829  -3.211638  -1.127272
Cd    0.462911  -2.416832  2.962331
