24
Energy: -169660.313247 eV PBE+vdW (tier 2 basis)
C    0.213832  -1.479255  1.862158
C    0.258505  -0.013648  2.058766
O    1.388967  0.582556  2.144044
H    0.606096  -1.932019  2.791856
H    0.891790  -1.794737  1.059447
H    -0.800492  -1.862389  1.711589
N    -0.877194  0.734382  2.191884
C    -2.045947  0.711016  1.321473
C    -1.959523  1.927886  0.347547
O    -0.890186  2.643670  0.183006
H    -0.777920  1.563247  2.782989
H    -1.990503  -0.191454  0.692089
C    -3.357487  0.635751  2.131999
O    -4.399628  0.448956  1.182721
H    -3.499067  1.555338  2.727859
H    -3.275733  -0.219197  2.821038
H    -5.257737  0.357555  1.631707
N    -3.033631  2.204905  -0.345862
C    -3.160507  3.261554  -1.353824
H    -3.865312  1.640661  -0.095382
H    -2.194329  3.444810  -1.831034
H    -3.517475  4.187273  -0.883407
H    -3.890781  2.934637  -2.100183
Cd    1.024417  2.407836  1.046454
