24
Energy: -169660.801883 eV PBE+vdW (tier 2 basis)
C    0.693875  -1.537596  2.306373
C    0.013922  -0.225231  2.087742
O    0.649001  0.820774  2.448867
H    0.095134  -2.397775  1.989012
H    0.926629  -1.634674  3.376756
H    1.654379  -1.536939  1.773088
N    -1.214839  -0.239219  1.539120
C    -2.244323  0.806664  1.346081
C    -1.993275  1.722442  0.124853
O    -1.055244  2.597578  0.103341
H    -1.538937  -1.172702  1.297051
H    -3.166834  0.248075  1.141314
C    -2.582583  1.632881  2.607069
O    -3.703167  2.381359  2.264449
H    -1.728346  2.311945  2.919792
H    -2.722508  0.954408  3.464423
H    -4.187679  2.677921  3.054981
N    -2.799390  1.595174  -0.906540
C    -2.753340  2.393510  -2.136466
H    -3.544653  0.904146  -0.839888
H    -3.728959  2.871538  -2.284226
H    -2.542691  1.733862  -2.987199
H    -1.973822  3.152867  -2.052050
Cd    0.213647  2.786990  1.791058
