24
Energy: -169660.104007 eV PBE+vdW (tier 2 basis)
C    0.686493  0.171850  0.319362
C    -0.145341  -0.729158  1.181652
O    0.123366  -1.901601  1.413261
H    1.089736  -0.403093  -0.521367
H    1.542999  0.520054  0.916480
H    0.134862  1.044353  -0.049707
N    -1.304917  -0.183531  1.750886
C    -2.031544  -0.976341  2.716443
C    -3.350075  -1.554360  2.172045
O    -4.158066  -2.232387  2.913183
H    -1.472314  0.817177  1.669675
H    -1.372885  -1.859662  2.878562
C    -2.188622  -0.218095  4.046217
O    -2.266979  -1.194342  5.156983
H    -3.077322  0.427158  4.075340
H    -1.286412  0.381960  4.216569
H    -2.024154  -0.765000  6.000822
N    -3.636954  -1.368470  0.906602
C    -4.798416  -1.902927  0.190368
H    -2.970849  -0.788907  0.392006
H    -4.480780  -2.189918  -0.817363
H    -5.578227  -1.133805  0.117121
H    -5.191665  -2.772955  0.721985
Cd    -3.788388  -2.813898  4.921035
