24
Energy: -169660.839154 eV PBE+vdW (tier 2 basis)
C    -0.025626  -0.495912  0.012064
C    -0.080571  -0.000939  1.416686
O    0.724970  0.942550  1.740666
H    1.002233  -0.787697  -0.239598
H    -0.287529  0.341041  -0.654496
H    -0.713243  -1.326864  -0.178910
N    -0.971947  -0.546654  2.260944
C    -1.519592  -0.004209  3.519100
C    -0.786412  -0.549296  4.768088
O    0.489937  -0.373629  4.904395
H    -1.493995  -1.334458  1.877757
H    -1.362803  1.089639  3.524748
C    -3.046860  -0.252900  3.458576
O    -3.598218  0.115192  4.708498
H    -3.233053  -1.321324  3.230757
H    -3.451671  0.347506  2.629501
H    -4.560552  0.233524  4.632102
N    -1.459571  -1.182568  5.694765
C    -0.909840  -1.727587  6.938011
H    -2.482751  -1.169066  5.588261
H    -1.045183  -2.816617  6.940675
H    -1.462607  -1.300528  7.783333
H    0.151859  -1.487352  7.017685
Cd    1.488959  1.030254  3.705250
