24
Energy: -169660.130256 eV PBE+vdW (tier 2 basis)
C    -0.015469  0.260646  -0.153045
C    -1.105809  -0.097813  0.810916
O    -2.138253  0.553188  0.963364
H    0.663093  0.976533  0.335413
H    -0.452956  0.763640  -1.021617
H    0.569775  -0.609711  -0.473534
N    -0.938260  -1.250944  1.575536
C    -1.873341  -1.540968  2.650011
C    -3.298790  -1.774401  2.094450
O    -4.374669  -1.506844  2.748418
H    -0.040064  -1.729015  1.570920
H    -1.562126  -2.496155  3.104574
C    -1.779902  -0.448972  3.737935
O    -2.398142  -0.935284  4.988418
H    -2.255896  0.485664  3.417908
H    -0.721842  -0.258702  3.953538
H    -1.933280  -0.560583  5.761391
N    -3.405794  -2.335082  0.911621
C    -4.661296  -2.672922  0.235717
H    -2.534664  -2.450933  0.393162
H    -5.057903  -1.789550  -0.282362
H    -5.395189  -3.025559  0.965904
H    -4.456380  -3.460586  -0.494851
Cd    -4.620844  -1.123650  4.814217
