24
Energy: -169661.443303 eV PBE+vdW (tier 2 basis)
C    0.898682  -1.301361  1.939511
C    -0.038773  -0.135259  1.932323
O    0.360194  0.934233  2.481488
H    1.146710  -1.545052  2.981937
H    1.836777  -1.003217  1.451568
H    0.497345  -2.192024  1.445014
N    -1.237654  -0.316398  1.334367
C    -2.428173  0.550397  1.152025
C    -2.170068  1.786511  0.257633
O    -1.595031  2.843078  0.683378
H    -1.352790  -1.246855  0.941133
H    -3.121637  -0.093075  0.591600
C    -3.239547  0.852174  2.426470
O    -2.513941  1.671122  3.386576
H    -3.493774  -0.100765  2.910790
H    -4.165161  1.368216  2.131068
H    -3.053150  1.802222  4.187514
N    -2.597762  1.728133  -0.991654
C    -2.447602  2.808490  -1.974384
H    -3.092190  0.893564  -1.297950
H    -2.340563  2.360994  -2.967181
H    -1.562240  3.402325  -1.732974
H    -3.335395  3.454085  -1.960921
Cd    -0.692258  2.783460  2.626672
