24
Energy: -169661.339023 eV PBE+vdW (tier 2 basis)
C    -0.330381  -0.276681  -0.207946
C    -0.279970  -0.001874  1.261363
O    0.785909  0.497536  1.727973
H    -0.119800  0.656248  -0.748794
H    -1.288127  -0.685457  -0.546659
H    0.475581  -0.979131  -0.462165
N    -1.385562  -0.299662  1.981425
C    -1.696506  -0.174702  3.422599
C    -1.622181  1.278858  3.945990
O    -0.543232  1.790026  4.402000
H    -2.138973  -0.699279  1.428042
H    -2.755586  -0.461473  3.484464
C    -1.027539  -1.210752  4.344625
O    0.427181  -1.134085  4.325698
H    -1.315443  -2.215003  4.004823
H    -1.395439  -1.055703  5.369814
H    0.804286  -1.856778  4.860058
N    -2.725353  2.007061  3.969141
C    -4.090945  1.640268  3.568528
H    -2.591961  2.948741  4.344491
H    -4.119678  1.295936  2.528139
H    -4.710684  2.538317  3.641630
H    -4.513105  0.881931  4.240595
Cd    1.294511  0.883654  3.770168
