24
Energy: -169660.750152 eV PBE+vdW (tier 2 basis)
C    -0.293559  -0.064781  -0.153211
C    -0.072888  -0.100520  1.322062
O    1.067622  0.311356  1.742915
H    0.504276  -0.626714  -0.656445
H    -0.210268  0.978673  -0.492446
H    -1.272332  -0.460402  -0.444310
N    -1.063311  -0.542659  2.105341
C    -1.246408  -0.398160  3.554177
C    -0.598030  -1.556410  4.360457
O    0.636036  -1.414315  4.738794
H    -1.940868  -0.814805  1.646624
H    -0.695189  0.493072  3.899276
C    -2.742560  -0.060488  3.800376
O    -3.513632  -0.783911  2.853050
H    -2.861663  1.025114  3.664117
H    -3.011383  -0.305101  4.840884
H    -4.409684  -0.411435  2.792019
N    -1.192121  -2.666776  4.735187
C    -2.560431  -3.168623  4.565242
H    -0.574153  -3.276280  5.279393
H    -2.493676  -4.239261  4.342015
H    -3.074383  -2.655141  3.750500
H    -3.115279  -3.041499  5.504359
Cd    1.873994  -0.112924  3.640938
