24
Energy: -169660.660133 eV PBE+vdW (tier 2 basis)
C    0.119926  -0.450439  -0.052321
C    0.006044  -0.052200  1.381472
O    1.094868  0.220117  1.990964
H    0.792747  0.238805  -0.576303
H    -0.847283  -0.495100  -0.565025
H    0.583297  -1.448939  -0.089254
N    -1.221313  -0.014415  1.930039
C    -1.673782  -0.023000  3.340909
C    -1.730167  1.376151  3.980179
O    -0.669660  2.020704  4.316793
H    -1.958657  -0.261136  1.274555
H    -2.700871  -0.399946  3.279761
C    -0.926313  -1.045511  4.234349
O    -0.787431  -2.214085  3.497027
H    -1.494752  -1.163647  5.172315
H    0.085836  -0.660071  4.568238
H    -0.656155  -2.981661  4.081099
N    -2.896832  1.938741  4.225927
C    -4.252728  1.430425  3.961274
H    -2.832206  2.855129  4.675685
H    -4.498618  0.595541  4.629143
H    -4.367600  1.134200  2.912543
H    -4.953636  2.246309  4.158976
Cd    1.230284  1.201030  3.851655
