21
Energy: -568332.1738765  eV PBE+vdW (tier 2 basis)
N    -0.038592  2.462051  1.164251
C    -0.321815  1.205315  1.960205
C    0.665502  0.124704  1.397466
O    1.008482  -0.751060  2.286640
H    0.199985  2.159959  0.196147
H    0.775379  2.975994  1.534551
H    -0.128618  1.415881  3.016722
C    -1.805866  0.738408  1.712878
C    -1.920621  -0.754948  1.779728
N    -2.041486  -1.490685  2.954991
C    -1.532089  -1.662218  0.826157
C    -1.662524  -2.759317  2.726892
N    -1.327993  -2.908787  1.424069
H    -2.122246  1.049935  0.706536
H    -2.464476  1.242597  2.433120
H    -1.357248  -1.509093  -0.233803
H    -1.667350  -3.548974  3.472200
H    -2.405834  -1.147790  3.843381
O    0.902374  0.159694  0.195246
H    -0.834962  3.115697  1.141277
Hg    0.961997  -2.761364  1.360349
