21
Energy: -568332.6857277  eV PBE+vdW (tier 2 basis)
N    0.442228  -0.970454  -0.022783
C    0.167535  -0.329990  1.270650
C    1.515389  -0.020179  1.946648
O    2.515313  -0.726340  1.806685
H    -0.416079  -1.232420  -0.518134
H    0.990064  -0.366967  -0.645182
H    -0.372511  0.620539  1.140106
C    -0.753464  -1.217165  2.190687
C    -0.138364  -2.459487  2.752966
N    0.226560  -2.619292  4.030577
C    0.199950  -3.746467  2.135608
C    0.742083  -3.918125  4.207307
N    0.737718  -4.594198  3.100283
H    -1.641807  -1.489233  1.599141
H    -1.112861  -0.576229  3.006521
H    -0.387000  -4.188057  1.322647
H    1.085501  -4.266511  5.179576
H    0.119962  -1.928715  4.776134
O    1.456016  1.054085  2.701948
H    2.325917  1.248204  3.119245
Hg    1.798392  -2.845797  0.731006
