21
Energy: -568331.3207822  eV PBE+vdW (tier 2 basis)
N    0.572980  -0.194869  -1.094971
C    -0.105516  -0.190067  0.221533
C    0.897441  -0.233833  1.398421
O    2.064852  0.357928  1.341884
H    0.897026  -1.126039  -1.377399
H    -0.010054  0.183993  -1.846808
H    -0.619229  0.781159  0.302463
C    -1.154057  -1.349566  0.341264
C    -2.268874  -1.167481  1.319934
N    -3.495306  -1.582719  1.094139
C    -2.298660  -0.620981  2.708674
C    -4.312963  -1.334889  2.254826
N    -3.649014  -0.774745  3.186802
H    -0.626105  -2.273340  0.639328
H    -1.584652  -1.536064  -0.652241
H    -1.972014  0.432548  2.779623
H    -5.364249  -1.618873  2.257951
H    -3.828932  -2.035489  0.238739
O    0.590854  -0.782540  2.448487
H    -1.578417  -1.156709  3.359362
Hg    2.629889  1.096576  -0.600010
