21
Energy: -568331.7108892  eV PBE+vdW (tier 2 basis)
N    0.292315  0.892434  -0.830182
C    -0.345271  0.422505  0.371980
C    0.647291  -0.330420  1.304012
O    1.725866  -0.741330  0.916964
H    0.212547  0.261083  -1.631418
H    0.019989  1.838640  -1.107889
H    -0.728175  1.295226  0.922908
C    -1.574182  -0.582945  0.014302
C    -2.424342  -0.944297  1.153523
N    -2.416622  -2.139698  1.823105
C    -3.464682  -0.188664  1.799968
C    -3.397684  -2.084415  2.778523
N    -4.035162  -0.903482  2.771985
H    -1.157877  -1.462628  -0.495508
H    -2.183598  -0.016974  -0.702837
H    -3.808050  0.810088  1.535615
H    -3.618834  -2.916281  3.444499
H    -1.836009  -2.952566  1.621598
O    0.252383  -0.554620  2.549877
H    -0.545492  -0.055703  2.810653
Hg    2.851589  0.786050  -0.794679
