21
Energy: -568332.1609247  eV PBE+vdW (tier 2 basis)
N    0.331931  0.453426  2.205237
C    0.274300  -0.194226  3.582910
C    1.709658  -0.764941  3.871678
O    2.498153  -0.775090  2.903021
H    0.699955  1.415035  2.251643
H    -0.596212  0.494191  1.757744
H    0.064095  0.600292  4.310135
C    -0.785416  -1.325097  3.664263
C    -2.162750  -0.794146  3.523400
N    -2.917876  -0.256975  4.536330
C    -3.014514  -0.729235  2.380349
C    -4.132917  0.087857  4.005452
N    -4.202686  -0.198172  2.700312
H    -0.630877  -1.818629  4.635917
H    -0.591985  -2.077360  2.885712
H    -2.808167  -1.119717  1.384717
H    -4.927560  0.537667  4.596380
H    -2.664700  -0.187845  5.520262
O    1.907250  -1.159153  5.049732
H    1.000336  -0.087733  1.623152
Hg    4.121980  -1.892150  4.604654
