21
Energy: -568332.2791440  eV PBE+vdW (tier 2 basis)
N    0.527732  1.172438  0.874200
C    0.076079  0.721221  2.200821
C    1.206920  -0.123466  2.846005
O    1.945217  -0.827350  2.161240
H    -0.189495  1.708275  0.376444
H    1.368073  1.756909  0.934290
H    -0.122981  1.591816  2.847584
C    -1.273633  -0.082282  2.155911
C    -1.448544  -1.165648  1.130219
N    -2.549802  -1.282017  0.374392
C    -0.641849  -2.323604  0.738355
C    -2.450996  -2.442815  -0.413295
N    -1.328308  -3.063960  -0.217298
H    -2.092131  0.643796  2.049768
H    -1.415121  -0.538201  3.151058
H    0.047526  -2.841987  1.412973
H    -3.247950  -2.739800  -1.092507
H    -3.351754  -0.648603  0.377716
O    1.339228  -0.127618  4.152647
H    0.783194  0.524028  4.625297
Hg    1.053597  -0.983130  -0.122822
