21
Energy: -568332.4089371  eV PBE+vdW (tier 2 basis)
N    -0.132219  -0.019201  -0.053660
C    0.009169  -0.503165  1.367332
C    1.529958  -0.686244  1.574665
O    2.274428  -0.746692  0.620507
H    0.683714  -0.403072  -0.578942
H    -1.054912  -0.326326  -0.445606
H    -0.390831  0.263734  2.042152
C    -0.721404  -1.851996  1.582022
C    -2.167993  -1.864238  1.254549
N    -2.637294  -1.236333  0.103859
C    -3.259306  -2.345874  2.008163
C    -3.939094  -1.334310  0.151460
N    -4.368670  -1.930476  1.369358
H    -0.546288  -2.179773  2.614879
H    -0.244504  -2.621245  0.938257
H    -3.276708  -2.807069  2.990697
H    -4.637150  -0.936772  -0.581353
H    -0.067114  1.005566  -0.113002
O    1.833614  -0.790823  2.860877
H    2.800219  -0.927814  2.968187
Hg    -6.226614  -3.075878  1.169598
