21
Energy: -568332.0511883  eV PBE+vdW (tier 2 basis)
N    -0.228692  -0.061575  0.180799
C    -0.537989  0.449876  1.576585
C    0.834865  0.508052  2.313374
O    0.935351  1.411395  3.215972
H    -1.056498  -0.442319  -0.300058
H    0.154431  0.688146  -0.416291
H    -0.981963  1.444399  1.469974
C    -1.527132  -0.518801  2.358268
C    -0.872778  -1.187066  3.534349
N    -0.161562  -2.388885  3.492033
C    -0.455617  -0.573340  4.685378
C    0.707390  -2.430712  4.513752
N    0.574682  -1.318415  5.271162
H    -1.954155  -1.254330  1.660494
H    -2.369482  0.087102  2.712979
H    -0.784540  0.369349  5.109986
H    1.385868  -3.253823  4.715607
H    -0.308066  -3.152154  2.833511
O    1.634588  -0.408605  2.068603
H    0.506318  -0.790638  0.261105
Hg    2.177163  0.211009  4.692083
