21
Energy: -568331.7805333  eV PBE+vdW (tier 2 basis)
N    0.148027  -2.436798  2.120736
C    1.381743  -2.362087  1.240319
C    2.178419  -1.088510  1.650601
O    1.782789  -0.411523  2.610979
H    -0.069975  -3.405280  2.406608
H    0.310525  -1.867632  2.970356
H    2.035955  -3.217994  1.452473
C    0.843129  -2.377350  -0.194535
C    -0.543561  -1.670221  -0.129952
N    -1.606579  -2.346834  -0.857272
C    -1.052365  -1.904418  1.325612
C    -2.382383  -3.049636  0.002324
N    -2.077509  -2.909257  1.268809
H    0.701619  -3.420556  -0.508429
H    1.540322  -1.906920  -0.894817
H    -1.408802  -0.997700  1.837301
H    -3.189264  -3.691639  -0.352945
H    -1.711723  -2.342522  -1.870674
O    3.221038  -0.894971  0.937316
H    -0.483004  -0.615370  -0.423687
Hg    4.047598  0.890216  2.049875
