21
Energy: -568332.2029320  eV PBE+vdW (tier 2 basis)
N    0.314490  -2.006134  0.710466
C    -0.057574  -0.695743  1.041067
C    0.797734  -0.192079  2.240193
O    0.409406  -0.315927  3.393772
H    0.686078  -2.206848  -0.213498
H    0.497081  -2.710005  1.419062
H    0.110834  -0.054845  0.167178
C    -1.587412  -0.457428  1.481906
C    -1.879455  -0.811213  2.869763
N    -2.470077  0.017506  3.774155
C    -1.893281  -2.113514  3.533155
C    -2.807699  -0.718050  4.889654
N    -2.442343  -2.041853  4.721093
H    -2.179421  -1.082765  0.798568
H    -1.827730  0.594890  1.282074
H    -1.514475  -3.049302  3.126933
H    -3.639879  -0.412088  5.525684
H    -2.711531  0.995844  3.616718
O    1.948560  0.308103  1.847325
H    2.506993  0.571368  2.611689
Hg    -1.309301  -0.371916  6.894044
