21
Energy: -568331.9859547  eV PBE+vdW (tier 2 basis)
N    -0.936989  0.868051  0.291925
C    -0.184076  0.358239  1.353242
C    1.250567  -0.024396  0.952195
O    1.416136  -0.596664  -0.121066
H    -1.495053  1.701680  0.453260
H    -0.568594  0.774915  -0.651019
H    -0.237641  1.011519  2.234472
C    -0.742359  -1.108845  1.938892
C    -0.882188  -2.157479  0.940372
N    -1.797139  -2.167478  -0.035426
C    -0.178884  -3.454096  0.767436
C    -1.692690  -3.373330  -0.756525
N    -0.759040  -4.145715  -0.291389
H    -1.718741  -0.828163  2.356789
H    -0.082960  -1.421769  2.757563
H    0.172374  -4.025814  1.634000
H    -2.357431  -3.597716  -1.589466
H    -2.484968  -1.431741  -0.206321
O    2.237555  0.101241  1.818271
H    2.034028  0.666658  2.590615
Hg    1.994371  -3.017031  0.020127
