21
Energy: -568332.0512537  eV PBE+vdW (tier 2 basis)
N    -0.438811  1.410436  0.766691
C    -0.057320  0.214847  1.621385
C    0.927983  -0.624330  0.752335
O    0.676489  -0.694583  -0.460475
H    -1.297965  1.877429  1.091492
H    -0.556360  1.085003  -0.211958
H    0.311212  2.119631  0.759936
H    0.427495  0.600079  2.523703
C    -1.322650  -0.668487  2.004710
C    -1.284525  -2.034840  1.380637
N    -1.783856  -2.363920  0.117963
C    -0.402224  -3.038273  1.681012
C    -1.148193  -3.451180  -0.345093
N    -0.269003  -3.894750  0.581562
H    -2.244675  -0.129438  1.741003
H    -1.333657  -0.772415  3.096306
H    -2.551666  -1.900392  -0.365238
H    0.181321  -3.181904  2.584330
H    -1.342306  -3.919538  -1.305084
O    1.808468  -1.285673  1.407457
Hg    1.832758  -3.132625  0.086409
