21
Energy: -568331.4023002  eV PBE+vdW (tier 2 basis)
N    0.837697  -0.726108  -1.030181
C    -0.152092  -0.372887  0.005493
C    0.464606  0.208660  1.304128
O    1.586872  0.868344  1.314902
H    1.245374  -1.658279  -0.900696
H    0.465884  -0.668710  -1.982712
H    -0.761386  0.444329  -0.413006
C    -1.064734  -1.581260  0.393667
C    -2.050572  -1.313929  1.486692
N    -3.060259  -0.470204  1.446781
C    -2.222830  -2.075991  2.763715
C    -3.836512  -0.600360  2.654703
N    -3.373359  -1.506424  3.418382
H    -0.430124  -2.419246  0.713957
H    -1.614648  -1.913895  -0.501138
H    -1.329800  -2.032175  3.410248
H    -4.706919  0.032335  2.820716
H    -3.280886  0.182878  0.693270
O    -0.170951  0.092108  2.348528
H    -2.388052  -3.153865  2.563435
Hg    2.658692  0.860681  -0.567882
