21
Energy: -568331.4472586  eV PBE+vdW (tier 2 basis)
N    0.523620  0.604255  -0.864214
C    -0.260143  0.322085  0.357786
C    0.573420  -0.268622  1.522398
O    1.844596  -0.019686  1.679991
H    0.643228  -0.216645  -1.467340
H    0.127337  1.360858  -1.429638
H    -0.621466  1.295241  0.727718
C    -1.472140  -0.620228  0.087477
C    -2.301708  -0.919144  1.293963
N    -2.730358  -2.115237  1.622889
C    -2.979035  0.016711  2.250546
C    -3.597543  -2.016401  2.770159
N    -3.751828  -0.811375  3.149687
H    -1.119736  -1.557358  -0.367709
H    -2.132036  -0.131140  -0.648172
H    -3.648567  0.717881  1.715582
H    -4.034877  -2.913503  3.205441
H    -2.473422  -2.992716  1.164984
O    -0.003688  -0.948482  2.365379
H    -2.277528  0.647602  2.820763
Hg    2.741874  1.089904  0.060314
