24
Energy: -34086.6898013 eV PBE+vdW (tier 2 basis)
C    -0.353142  1.906742  0.322915
C    -0.317992  1.157140  1.606895
O    0.798096  0.733136  2.084375
H    0.069469  1.275127  -0.471935
H    0.289239  2.795093  0.399250
H    -1.363047  2.217163  0.036459
N    -1.438782  0.913989  2.275291
C    -1.523695  0.158824  3.535302
C    -3.038031  -0.089639  3.913148
O    -3.419397  0.161413  5.045156
H    -2.312692  1.277936  1.894763
H    -1.057648  -0.829570  3.379833
C    -0.840272  0.849748  4.718248
O    0.485950  0.248786  5.022896
H    -1.491858  0.718451  5.593309
H    -0.686453  1.919967  4.540111
H    0.480775  -0.006226  5.962429
N    -3.815006  -0.549588  2.907806
C    -5.239267  -0.840090  3.116693
H    -3.380341  -0.939997  2.077097
H    -5.375545  -1.814912  3.602379
H    -5.745144  -0.839182  2.146845
H    -5.670853  -0.065068  3.756762
Ca    2.158637  0.176755  3.532973
