24
Energy: -34087.556714 eV PBE+vdW (tier 2 basis)
C    0.901692  -1.264339  2.253976
C    -0.059692  -0.127815  2.150742
O    0.189006  0.969014  2.745590
H    0.605775  -2.145254  1.675454
H    0.994548  -1.546044  3.313054
H    1.895988  -0.931785  1.927032
N    -1.173150  -0.303961  1.423810
C    -2.347601  0.573705  1.258078
C    -2.052015  1.892452  0.520419
O    -1.291529  2.779044  1.028984
H    -1.260949  -1.218537  0.987999
H    -3.042334  -0.000990  0.632675
C    -3.082114  0.854627  2.590362
O    -4.085639  1.797422  2.282112
H    -2.376853  1.237570  3.353135
H    -3.480364  -0.098187  2.971130
H    -4.845215  1.690778  2.877098
N    -2.650610  2.092707  -0.635462
C    -2.546205  3.322311  -1.426494
H    -3.263375  1.361536  -0.987443
H    -3.378738  3.348553  -2.134386
H    -1.599863  3.339965  -1.981762
H    -2.600006  4.193302  -0.765583
Ca    0.040243  3.070922  2.643478
