24
Energy: -34086.419513 eV PBE+vdW (tier 2 basis)
C    0.071355  0.462840  0.067626
C    -0.191566  0.148951  1.496283
O    0.723111  0.324156  2.381251
H    -0.804995  0.314966  -0.571450
H    0.888170  -0.181520  -0.290852
H    0.420414  1.500197  -0.024603
N    -1.372291  -0.327364  1.877854
C    -1.661457  -0.859389  3.218221
C    -2.732809  -2.009742  3.158726
O    -2.397877  -3.082629  3.629866
H    -2.055869  -0.520674  1.147218
H    -0.779933  -1.429886  3.546313
C    -1.997365  0.174099  4.293464
O    -0.765883  0.647542  4.990899
H    -2.620047  -0.299765  5.062522
H    -2.509191  1.054867  3.888459
H    -1.059349  1.003286  5.850329
N    -3.920223  -1.769408  2.543111
C    -4.616136  -0.502783  2.315780
H    -4.507114  -2.604141  2.520846
H    -3.915633  0.317753  2.116909
H    -5.241407  -0.222431  3.175426
H    -5.262279  -0.601633  1.436735
Ca    1.393371  0.616708  4.303067
