24
Energy: -34086.2895081 eV PBE+vdW (tier 2 basis)
C    -1.263676  0.854779  -0.528621
C    -0.723744  0.693111  0.858763
O    -0.424191  1.613674  1.598682
H    -1.958482  1.699959  -0.569783
H    -1.724994  -0.048709  -0.943507
H    -0.408051  1.105051  -1.175694
N    -0.474713  -0.644137  1.321920
C    -1.571320  -1.569565  1.499132
C    -2.397880  -1.292013  2.772748
O    -3.235832  -2.188083  3.173736
H    0.150347  -0.596292  2.130743
H    -2.270080  -1.450960  0.652826
C    -0.996667  -2.997180  1.445243
O    -2.052703  -4.045352  1.402506
H    -0.351703  -3.210955  2.308228
H    -0.406293  -3.079345  0.527004
H    -1.762462  -4.720358  0.763266
N    -2.243599  -0.149691  3.397183
C    -2.976050  0.294709  4.584033
H    -1.561745  0.518068  3.003381
H    -2.264355  0.472767  5.399429
H    -3.704198  -0.462231  4.881434
H    -3.487429  1.236946  4.352558
Ca    -3.829179  -4.127193  2.793788
