24
Energy: -34088.185534 eV PBE+vdW (tier 2 basis)
C    -0.363152  -0.239112  -0.166101
C    -0.369010  -0.009903  1.308987
O    0.628852  0.501326  1.884317
H    -0.198350  0.722548  -0.671991
H    -1.282896  -0.694281  -0.547081
H    0.491150  -0.880700  -0.422267
N    -1.476384  -0.362948  1.998084
C    -1.738149  -0.228321  3.443990
C    -1.616759  1.234897  3.924769
O    -0.503645  1.684719  4.330059
H    -2.227451  -0.774490  1.450714
H    -2.790532  -0.522158  3.560946
C    -1.003035  -1.229364  4.347934
O    0.443529  -1.041108  4.388771
H    -1.210031  -2.241869  3.976605
H    -1.403910  -1.133507  5.368065
H    0.831565  -1.845848  4.774557
N    -2.694120  2.004950  3.922188
C    -4.061637  1.672402  3.504076
H    -2.531662  2.952657  4.265888
H    -4.086565  1.330635  2.462494
H    -4.663682  2.582522  3.573222
H    -4.509694  0.920370  4.166230
Ca    1.472570  0.964581  3.811545
