24
Energy: -34086.5530582 eV PBE+vdW (tier 2 basis)
C    -0.131352  3.293470  1.641345
C    -0.171980  2.004884  2.383433
O    0.919930  1.420004  2.726274
H    -1.126170  3.696982  1.427433
H    0.406669  3.144397  0.693847
H    0.441015  4.031026  2.221012
N    -1.334934  1.445226  2.695508
C    -1.517392  0.112903  3.299781
C    -3.011357  -0.346829  3.379691
O    -3.191044  -1.552902  3.391685
H    -2.172656  1.882628  2.312142
H    -1.077705  -0.637955  2.625453
C    -0.891751  -0.058201  4.693139
O    0.429470  -0.742552  4.645714
H    -1.539707  -0.692724  5.306512
H    -0.738480  0.900736  5.201314
H    0.321938  -1.610673  5.073900
N    -3.974716  0.603333  3.421302
C    -5.395146  0.233286  3.484155
H    -3.740382  1.553031  3.694620
H    -5.695317  -0.013705  4.510697
H    -5.558462  -0.642703  2.849798
H    -5.994973  1.070749  3.116043
Ca    2.225505  0.077590  3.581202
