24
Energy: -34086.8226679 eV PBE+vdW (tier 2 basis)
C    -0.006484  -1.296309  0.417911
C    -0.150236  -1.005220  1.869132
O    0.720679  -1.462952  2.709760
H    -0.054480  -2.385421  0.270424
H    0.982524  -0.970512  0.068632
H    -0.783989  -0.818560  -0.185815
N    -1.163252  -0.288244  2.303741
C    -1.547487  0.000428  3.680316
C    -3.013159  0.578004  3.490014
O    -3.341869  0.884654  2.345183
H    -1.895793  0.100302  1.666902
H    -1.584798  -0.928366  4.271208
C    -0.679194  1.043857  4.382062
O    0.539193  0.447026  5.008015
H    -1.238657  1.511158  5.199753
H    -0.353829  1.818858  3.676968
H    0.773012  1.039765  5.745791
N    -3.805407  0.707189  4.564118
C    -3.582539  0.300782  5.947303
H    -4.714640  1.111943  4.342035
H    -4.520772  -0.088638  6.357299
H    -3.261155  1.144764  6.574676
H    -2.843348  -0.505872  6.010006
Ca    1.887679  -1.273636  4.362565
