24
Energy: -34086.5604821 eV PBE+vdW (tier 2 basis)
C    -0.966749  -2.383517  1.110425
C    -0.610173  -1.504925  2.256229
O    0.528599  -1.626681  2.841216
H    -0.216238  -2.271992  0.315471
H    -1.958741  -2.169625  0.699872
H    -0.930492  -3.432308  1.438904
N    -1.463445  -0.586401  2.689284
C    -1.235423  0.313235  3.832713
C    -2.551761  1.139553  4.086290
O    -2.513492  2.355547  3.962394
H    -2.352509  -0.500046  2.197934
H    -1.011395  -0.301533  4.720456
C    -0.088976  1.307885  3.612178
O    1.153305  0.887139  4.315416
H    -0.404891  2.281433  4.007514
H    0.154924  1.427121  2.550623
H    1.430344  1.628351  4.882245
N    -3.670221  0.441498  4.388662
C    -3.838499  -0.964436  4.747419
H    -4.490240  1.040345  4.482145
H    -4.516568  -1.036233  5.605247
H    -2.885888  -1.414459  5.047799
H    -4.268624  -1.549629  3.922355
Ca    2.211152  -1.039320  3.878207
