24
Energy: -34086.3887088 eV PBE+vdW (tier 2 basis)
C    -1.135677  1.487495  0.271379
C    -0.190613  0.769298  1.201290
O    0.940486  1.114250  1.443901
H    -0.672225  2.438250  -0.006483
H    -2.112353  1.691735  0.732398
H    -1.299712  0.913133  -0.653087
N    -0.686065  -0.389589  1.885329
C    -1.831140  -1.184446  1.513930
C    -2.772638  -1.420821  2.706665
O    -3.702203  -2.308488  2.611530
H    0.077896  -0.865750  2.369683
H    -2.420846  -0.612203  0.778119
C    -1.364708  -2.492025  0.841969
O    -2.484328  -3.280519  0.254364
H    -0.835441  -3.145287  1.549092
H    -0.686156  -2.227597  0.023724
H    -2.180801  -3.618529  -0.607293
N    -2.603957  -0.678866  3.769457
C    -3.404407  -0.684184  4.992036
H    -1.814497  -0.026357  3.691518
H    -3.833707  0.313450  5.144736
H    -2.759292  -0.925966  5.845310
H    -4.204191  -1.423203  4.908678
Ca    -4.387653  -3.797183  1.355140
