24
Energy: -34087.4287607 eV PBE+vdW (tier 2 basis)
C    0.225813  -0.406896  -0.016731
C    -0.027631  -0.008689  1.397419
O    0.922304  0.455970  2.107512
H    0.734926  0.408626  -0.545869
H    -0.681159  -0.688170  -0.561257
H    0.915101  -1.264904  -0.011124
N    -1.263777  -0.155009  1.888349
C    -1.735838  -0.088041  3.287848
C    -1.703326  1.318125  3.892685
O    -0.590062  1.896826  4.132102
H    -1.928355  -0.582678  1.248636
H    -2.777935  -0.419465  3.228471
C    -1.020123  -1.105629  4.206001
O    -1.086282  -2.339147  3.537661
H    -1.539084  -1.106447  5.179611
H    0.030019  -0.802253  4.393048
H    -1.007150  -3.072714  4.169179
N    -2.834230  1.915586  4.223324
C    -4.217688  1.445672  4.055297
H    -2.712802  2.823744  4.674547
H    -4.436076  0.610914  4.732675
H    -4.412985  1.156278  3.016802
H    -4.883117  2.276036  4.306738
Ca    1.474458  1.779267  3.637075
