24
Energy: -34087.5371626 eV PBE+vdW (tier 2 basis)
C    -0.253544  -0.129763  -0.165532
C    -0.208665  -0.078534  1.323408
O    0.810038  0.405991  1.921755
H    0.629242  -0.661957  -0.543841
H    -0.192782  0.898789  -0.550625
H    -1.160084  -0.604221  -0.553960
N    -1.253075  -0.537662  2.015395
C    -1.475830  -0.421520  3.459889
C    -0.619536  -1.450448  4.241891
O    0.609625  -1.119942  4.419471
H    -2.062733  -0.917409  1.515927
H    -1.059738  0.540907  3.794285
C    -2.999547  -0.336672  3.690382
O    -3.631872  -1.230176  2.780767
H    -3.304983  0.703043  3.497053
H    -3.234779  -0.567849  4.741957
H    -4.581712  -1.032621  2.725761
N    -1.039099  -2.594480  4.742252
C    -2.335869  -3.278608  4.701060
H    -0.307284  -3.085586  5.261098
H    -2.143938  -4.349291  4.572766
H    -2.945129  -2.919154  3.868995
H    -2.863306  -3.130242  5.652471
Ca    2.109602  0.109401  3.555373
