24
Energy: -34087.0759669 eV PBE+vdW (tier 2 basis)
C    0.141733  -1.200041  1.952253
C    0.033498  0.200930  2.442821
O    1.077588  0.901333  2.650002
H    0.840459  -1.721133  2.625041
H    0.599379  -1.236800  0.953371
H    -0.809219  -1.739472  1.947434
N    -1.177555  0.757235  2.700526
C    -2.257627  0.724939  1.723225
C    -1.953090  1.824084  0.652603
O    -0.766262  2.312056  0.574093
H    -1.116566  1.627169  3.233397
H    -2.230611  -0.240223  1.194032
C    -3.632535  0.841124  2.404686
O    -4.602234  0.688780  1.372330
H    -3.731727  1.814467  2.918529
H    -3.706288  0.039907  3.155282
H    -5.497647  0.663292  1.749667
N    -2.932206  2.179457  -0.141410
C    -2.862343  3.144659  -1.236919
H    -3.839870  1.729301  0.070358
H    -1.837957  3.502083  -1.358252
H    -3.527484  3.989905  -1.021173
H    -3.197607  2.660011  -2.161680
Ca    1.231169  2.563937  1.281783
