24
Energy: -605238.945383 eV PBE+vdW (tier 2 basis)
N    -1.012710  -0.596772  0.434564
C    -0.058803  -0.608278  1.507678
C    1.412548  -0.458355  1.092963
O    1.719935  -0.288526  -0.140567
H    -0.851864  -1.304154  -0.280560
H    -1.130569  0.310597  -0.010136
H    -0.250796  0.282669  2.131213
C    -0.277169  -1.884066  2.371924
C    0.114702  -1.792811  3.891214
C    -0.670542  -0.827834  4.679401
C    0.294895  -3.116794  4.510362
C    -1.161692  -1.141078  5.921732
C    -0.209668  -3.412390  5.752672
C    -0.941643  -2.430831  6.450829
H    0.259181  -2.736669  1.933077
H    -1.348685  -2.107820  2.305159
H    -0.852652  0.164163  4.263150
H    0.861086  -3.867105  3.955337
H    -1.734016  -0.412498  6.494460
H    -0.058931  -4.395407  6.196946
H    -1.353789  -2.676352  7.431623
O    2.355798  -0.469193  1.977012
H    1.155288  -1.365196  3.880338
Pb    3.943096  -0.016299  0.341610
