24
Energy: -605239.510027 eV PBE+vdW (tier 2 basis)
N    -0.667271  -0.182208  1.845384
C    0.617604  -0.384379  2.494022
C    1.726559  0.020864  1.526596
O    2.112169  -0.773705  0.587909
H    -0.736130  -0.608729  0.921576
H    -0.955177  0.793791  1.802888
H    0.678390  0.303765  3.348047
C    0.797810  -1.854345  2.979917
C    -0.154351  -2.212057  4.079694
C    0.335802  -2.258796  5.473669
C    -1.486203  -2.497492  3.841724
C    -0.620830  -2.568989  6.544390
C    -2.353483  -2.794432  4.909148
C    -1.934273  -2.830501  6.256659
H    1.835383  -1.989502  3.315687
H    0.644192  -2.522180  2.119252
H    0.895774  -1.333583  5.727821
H    -1.878662  -2.493275  2.827047
H    -0.249494  -2.600476  7.569797
H    -3.399291  -3.011067  4.681864
H    -2.647728  -3.070028  7.043594
O    2.218510  1.209414  1.585713
H    1.162966  -3.004003  5.536717
Pb    3.548732  0.826912  -0.244115
