24
Energy: -605239.503288 eV PBE+vdW (tier 2 basis)
N    -0.358190  -1.175475  1.245053
C    0.571905  -0.628755  2.228475
C    1.807532  -0.126550  1.482709
O    1.808593  1.069985  1.003670
H    0.031950  -1.939781  0.692893
H    -0.755406  -0.468450  0.627283
H    0.100049  0.253188  2.684961
C    0.935302  -1.658954  3.315580
C    -0.147484  -2.018755  4.294772
C    0.275214  -2.441055  5.650382
C    -1.499531  -2.008213  4.005969
C    -0.753445  -2.880461  6.603323
C    -2.438056  -2.412976  4.973731
C    -2.079451  -2.862535  6.262541
H    1.818377  -1.308890  3.870642
H    1.266640  -2.592938  2.824579
H    0.841313  -1.610750  6.131062
H    -1.841991  -1.712220  3.015479
H    -0.427436  -3.203160  7.593285
H    -3.496722  -2.384829  4.707436
H    -2.848559  -3.179063  6.965279
O    2.803798  -0.903649  1.231210
H    1.076397  -3.208113  5.587150
Pb    3.858204  0.765400  0.031535
