24
Energy: -605240.731495 eV PBE+vdW (tier 2 basis)
N    -0.538399  -0.416392  0.203355
C    -0.834892  -0.122931  1.627725
C    0.137928  0.970902  2.071778
O    1.286082  1.020958  1.599321
H    -0.804021  0.374542  -0.394916
H    -1.094345  -1.215224  -0.118878
H    -1.874201  0.214915  1.762993
C    -0.617025  -1.409120  2.493301
C    0.695003  -2.132333  2.246049
C    1.886141  -1.775589  2.931748
C    0.758983  -3.220551  1.337609
C    3.079108  -2.493236  2.729185
C    1.953143  -3.933686  1.141383
C    3.112585  -3.573747  1.839086
H    -1.455093  -2.086896  2.278864
H    -0.707553  -1.136980  3.553912
H    1.873903  -0.964707  3.661548
H    -0.145811  -3.549895  0.823423
H    3.971494  -2.215621  3.290087
H    1.964826  -4.783938  0.459576
H    4.032509  -4.141453  1.702407
O    -0.187252  1.826217  3.006156
H    -1.122440  1.777482  3.290891
Pb    1.981326  -0.809715  0.240396
