24
Energy: -605240.702175 eV PBE+vdW (tier 2 basis)
N    -0.226328  1.148398  0.991070
C    -0.164430  -0.236196  1.607667
C    1.204744  -0.839782  1.319967
O    1.637543  -1.708784  2.143358
H    0.265743  1.848556  1.566624
H    -1.195998  1.475239  0.866078
H    -0.329422  -0.135710  2.685856
C    -1.236723  -1.172437  0.936766
C    -0.779803  -2.615140  0.879992
C    -0.114770  -3.093152  -0.265506
C    -0.908812  -3.463037  1.986702
C    0.475361  -4.377339  -0.264923
C    -0.326676  -4.736131  1.992226
C    0.386873  -5.191825  0.882735
H    -1.414622  -0.816414  -0.089171
H    -2.177732  -1.075881  1.493985
H    -0.092169  -2.493273  -1.177275
H    -1.454891  -3.126540  2.868918
H    0.894006  -4.782434  -1.189757
H    -0.440473  -5.376693  2.866079
H    0.820830  -6.191462  0.877647
O    1.737378  -0.616436  0.192355
H    0.242179  1.120691  0.066978
Pb    2.754252  -2.876033  0.463018
