24
Energy: -605239.555913 eV PBE+vdW (tier 2 basis)
N    -0.380867  -0.958056  2.784534
C    1.061735  -0.602295  3.062522
C    1.754033  -0.081800  1.826914
O    1.205639  -0.198870  0.672930
H    -0.569002  -0.942384  1.771508
H    -1.027409  -0.297243  3.234621
H    1.079978  0.176438  3.837425
C    1.688160  -1.905519  3.618621
C    0.513668  -2.567123  4.363155
C    0.229444  -1.970685  5.712306
C    -0.665052  -2.414567  3.396145
C    -1.034421  -1.741904  6.129268
C    -2.026931  -2.436733  3.995980
C    -2.174879  -2.082999  5.292677
H    2.544301  -1.678652  4.262693
H    2.036706  -2.551285  2.800332
H    1.075505  -1.809025  6.382167
H    -0.568310  -3.085399  2.534587
H    -1.219367  -1.365094  7.134605
H    -2.874035  -2.724893  3.375632
H    -3.168633  -2.070927  5.740795
O    2.906935  0.458555  1.947678
H    0.742477  -3.639779  4.495284
Pb    3.076321  0.845238  -0.321383
