28
Energy: -609834.9461132  eV PBE+vdW (tier 2 basis)
C    -0.57478  1.41718  0.87383
C    -0.64067  0.43749  1.99440
O    0.24208  0.49938  2.92862
H    0.45741  1.41513  0.49736
H    -0.77883  2.42849  1.24844
H    -1.26170  1.18522  0.05528
N    -1.55385  -0.53106  2.04975
C    -2.91082  -0.65043  1.47487
C    -3.59880  0.68251  1.07242
O    -4.14894  0.74436  -0.02006
H    -1.35732  -1.22683  2.77117
H    -2.86216  -1.21530  0.53452
C    -3.74440  -1.47652  2.48402
C    -3.96059  -0.86617  3.89791
C    -2.67439  -0.41847  4.54825
O    -1.78308  -1.28090  4.88044
O    -2.42368  0.83506  4.68539
H    -3.27094  -2.46457  2.58724
H    -4.73043  -1.65169  2.03580
H    -4.40954  -1.64371  4.53084
H    -4.65225  -0.01767  3.86065
N    -3.58199  1.70700  1.96382
C    -4.24856  2.96803  1.65583
H    -3.19455  1.58149  2.89599
H    -4.04735  3.67759  2.46410
H    -5.33331  2.83129  1.55514
H    -3.87367  3.37773  0.70972
Pb    -0.15695  0.39577  5.19121
