28
Energy: -609834.8343949  eV PBE+vdW (tier 2 basis)
C    -0.38147  -0.87215  0.49474
C    -0.26482  -0.00228  1.71153
O    0.81178  0.08108  2.33880
H    -1.37479  -0.84294  0.03353
H    -0.14025  -1.90639  0.77041
H    0.36718  -0.54946  -0.23984
N    -1.38123  0.69096  2.09310
C    -1.26402  1.60048  3.22262
C    -1.49391  0.84195  4.54014
O    -0.48352  0.37302  5.13618
H    -2.23433  0.59367  1.55342
H    -0.18418  1.73014  3.20915
C    -1.74219  3.05095  3.04604
C    -0.95844  4.04491  3.97968
C    0.38409  3.44252  4.35873
O    1.22282  3.15667  3.42381
O    0.55567  3.00567  5.53945
H    -2.81753  3.19239  3.20233
H    -1.52849  3.30620  1.99972
H    -1.51622  4.24702  4.89970
H    -0.81913  4.99049  3.44185
N    -2.71210  0.61838  5.03418
C    -4.00581  1.00957  4.48676
H    -2.71487  0.10149  5.91214
H    -4.35209  1.96042  4.91355
H    -3.95988  1.10072  3.39777
H    -4.73816  0.23140  4.72634
Pb    1.75206  1.12582  4.57463
