28
Energy: -609833.6255189  eV PBE+vdW (tier 2 basis)
C    0.02620  -0.10631  0.79198
C    0.13810  -0.08652  2.30019
O    1.08306  -0.56923  2.90781
H    0.96790  -0.48778  0.38972
H    -0.16859  0.89188  0.37705
H    -0.78587  -0.77075  0.46282
N    -0.88507  0.52939  3.01542
C    -2.16945  0.98875  2.53818
C    -2.35447  2.54223  2.55363
O    -3.46422  3.01562  2.32247
H    -0.74275  0.47479  4.02352
H    -2.25346  0.71840  1.47556
C    -3.33452  0.34704  3.30508
C    -3.40215  -1.17497  3.06457
C    -4.53495  -1.79035  3.81036
O    -4.60018  -1.70655  5.09944
O    -5.48323  -2.40512  3.18620
H    -4.25835  0.83835  2.97369
H    -3.22572  0.54935  4.38098
H    -2.46969  -1.64833  3.41478
H    -3.52486  -1.40542  1.99908
N    -1.23815  3.25696  2.79890
C    -1.20644  4.71215  2.78315
H    -0.37857  2.73880  2.94985
H    -0.68612  5.08639  1.89130
H    -0.69682  5.08800  3.67823
H    -2.23757  5.07787  2.77040
Pb    -6.54949  -2.87781  5.14249
