28
Energy: -609833.3945229  eV PBE+vdW (tier 2 basis)
C    -0.06322  0.03391  0.27204
C    -0.20666  -0.16153  1.76239
O    0.75165  -0.38081  2.49314
H    0.99686  0.18827  0.05540
H    -0.40039  -0.86455  -0.26345
H    -0.64791  0.87713  -0.11313
N    -1.47378  -0.10357  2.33548
C    -2.79185  -0.02015  1.71885
C    -3.00092  -1.01643  0.53615
O    -3.30407  -0.60699  -0.58127
H    -1.43780  -0.34453  3.32265
H    -3.49834  -0.32176  2.50871
C    -3.16938  1.39636  1.25291
C    -2.96839  2.42583  2.37555
C    -3.13604  3.82340  1.89759
O    -2.49926  4.24787  0.85274
O    -3.91361  4.65031  2.51575
H    -4.21455  1.38572  0.91701
H    -2.57046  1.66882  0.37656
H    -1.93307  2.33566  2.75383
H    -3.64618  2.26503  3.22346
N    -2.83983  -2.33716  0.80815
C    -2.52422  -2.98873  2.07224
H    -2.98065  -2.93001  -0.00500
H    -2.81865  -4.04060  1.99861
H    -3.09336  -2.55119  2.90313
H    -1.45267  -2.94522  2.31186
Pb    -3.39183  6.31976  1.06216
