28
Energy: -609835.2281642  eV PBE+vdW (tier 2 basis)
C    0.16093  1.26568  0.64164
C    -0.05501  0.96337  2.09228
O    0.95504  0.74708  2.84611
H    -0.77232  1.32193  0.07236
H    0.80861  0.49335  0.20851
H    0.68905  2.22526  0.55311
N    -1.30609  0.91807  2.53783
C    -1.76103  0.49753  3.85994
C    -2.85760  -0.55846  3.56469
O    -3.43787  -0.50933  2.47752
H    -2.07051  0.87446  1.85175
H    -0.89991  0.07723  4.39035
C    -2.39998  1.64077  4.69562
C    -1.66113  2.99394  4.68395
C    -0.17166  2.84555  4.79714
O    0.32873  1.98904  5.61188
O    0.59214  3.48987  3.99166
H    -2.48631  1.27339  5.72601
H    -3.42244  1.81914  4.33486
H    -2.02006  3.59883  5.53043
H    -1.87138  3.56360  3.77187
N    -3.16217  -1.45977  4.52245
C    -2.59323  -1.61537  5.85356
H    -3.94149  -2.06395  4.27129
H    -2.55453  -2.68091  6.10606
H    -3.18962  -1.09748  6.61856
H    -1.56852  -1.23074  5.88793
Pb    2.25838  1.91191  4.30863
