28
Energy: -609835.2973513  eV PBE+vdW (tier 2 basis)
C    0.33734  -0.07899  0.15564
C    -0.07027  0.16774  1.58262
O    0.77275  0.60352  2.39786
H    -0.46295  -0.48867  -0.46996
H    1.18696  -0.77366  0.15169
H    0.68852  0.86459  -0.28067
N    -1.35389  -0.12595  1.89678
C    -2.01336  -0.10401  3.20895
C    -2.16528  1.34206  3.72105
O    -1.32604  2.24562  3.48353
H    -1.92108  -0.46262  1.12724
H    -3.03698  -0.43848  2.99378
C    -1.39171  -1.16460  4.19479
C    -1.21366  -0.79333  5.68514
C    -0.17827  0.30679  5.75464
O    0.97966  0.05425  5.26055
O    -0.51683  1.49151  6.06945
H    -0.39997  -1.42819  3.81137
H    -2.01164  -2.06695  4.12663
H    -0.84527  -1.68880  6.20283
H    -2.14283  -0.47234  6.16999
N    -3.27294  1.59373  4.41902
C    -3.51895  2.87045  5.08512
H    -3.95030  0.84906  4.54338
H    -3.43289  3.69288  4.36645
H    -2.78905  3.01681  5.89129
H    -4.52982  2.85736  5.50094
Pb    0.97175  2.14721  4.23791
