28
Energy: -609834.8223879  eV PBE+vdW (tier 2 basis)
C    -1.01562  1.43770  0.10462
C    -1.36806  0.98221  1.48979
O    -2.06678  1.69196  2.24293
H    -0.35838  0.74034  -0.42656
H    -0.53272  2.42078  0.16209
H    -1.94312  1.56440  -0.46874
N    -0.89394  -0.23885  1.88680
C    -1.30221  -0.72640  3.19276
C    -0.45463  -0.11735  4.32154
O    -0.96825  0.79616  5.02307
H    -0.32686  -0.78850  1.25069
H    -2.21804  -0.15440  3.29128
C    -1.74180  -2.20001  3.36335
C    -3.29868  -2.34378  3.55116
C    -3.80953  -1.05392  4.16280
O    -4.32404  -0.17990  3.37431
O    -3.48006  -0.74350  5.35339
H    -1.25002  -2.61655  4.25046
H    -1.42949  -2.80966  2.50509
H    -3.50099  -3.20060  4.20337
H    -3.79569  -2.50032  2.58830
N    0.79940  -0.51238  4.54567
C    1.57777  -1.48817  3.79451
H    1.27250  -0.01255  5.29691
H    0.91959  -2.14519  3.21941
H    2.27835  -0.99063  3.11000
H    2.14821  -2.11337  4.49049
Pb    -3.25109  1.55705  4.61129
