28
Energy: -609835.1475180  eV PBE+vdW (tier 2 basis)
C    -1.00474  -0.11799  -0.08616
C    -0.31833  0.24506  1.20611
O    0.88990  0.55715  1.16300
H    -0.91912  0.72925  -0.77793
H    -2.06148  -0.38322  0.02643
H    -0.46800  -0.96134  -0.53863
N    -1.09979  0.19536  2.31229
C    -0.87551  0.39683  3.75600
C    -0.16372  1.71940  4.10313
O    0.58454  2.34693  3.31350
H    -2.04882  -0.09550  2.10535
H    -1.89739  0.55354  4.13152
C    -0.38605  -0.87442  4.52748
C    0.81484  -1.66347  3.98418
C    1.99933  -0.77404  3.69518
O    2.13203  0.28918  4.41112
O    2.71419  -0.96749  2.66782
H    -0.17533  -0.56467  5.55827
H    -1.24233  -1.56183  4.58047
H    1.09433  -2.42321  4.72940
H    0.57051  -2.20755  3.06382
N    -0.44189  2.26236  5.29773
C    -1.30038  1.79683  6.37987
H    0.08380  3.11732  5.46758
H    -0.76232  1.12602  7.06362
H    -2.18531  1.27746  5.99553
H    -1.64591  2.66777  6.94598
Pb    2.67196  1.44130  2.43433
