28
Energy: -609834.7584551  eV PBE+vdW (tier 2 basis)
C    -0.21416  -0.77624  0.60463
C    -0.17874  0.01833  1.89364
O    0.82889  0.57637  2.28835
H    0.75300  -1.27786  0.49498
H    -0.31237  -0.08164  -0.24091
H    -1.01875  -1.51700  0.53556
N    -1.33836  0.07926  2.68476
C    -2.71722  -0.23708  2.32769
C    -3.01516  -1.74596  2.48886
O    -4.11820  -2.27745  2.14342
H    -1.21006  0.71648  3.46778
H    -3.33535  0.22190  3.11760
C    -3.18792  0.36681  0.96744
C    -4.48742  1.21228  1.04393
C    -5.58659  0.29106  1.46365
O    -6.12068  -0.49202  0.59881
O    -5.84022  0.13815  2.71634
H    -3.31633  -0.41672  0.20998
H    -2.39439  1.03323  0.61272
H    -4.37987  2.03129  1.76539
H    -4.70082  1.62561  0.05116
N    -2.05870  -2.47856  3.03723
C    -2.14921  -3.90515  3.31425
H    -1.21779  -1.95971  3.29418
H    -1.14802  -4.34242  3.25279
H    -2.55321  -4.08332  4.32010
H    -2.80120  -4.38174  2.57616
Pb    -6.41968  -2.05832  2.25821
