28
Energy: -609834.7846174  eV PBE+vdW (tier 2 basis)
C    0.30226  -0.00750  0.43080
C    0.25886  -0.20159  1.92984
O    1.21910  -0.61377  2.57341
H    1.29564  0.35836  0.15190
H    -0.46287  0.67938  0.04884
H    0.16291  -0.98404  -0.05393
N    -0.95412  0.11249  2.51546
C    -1.41383  -0.17297  3.87421
C    -1.45448  1.07551  4.78514
O    -2.53224  1.36596  5.41567
H    -1.68051  0.42982  1.88321
H    -2.47872  -0.41731  3.75993
C    -0.72786  -1.38547  4.58153
C    -1.72492  -2.43951  5.13636
C    -2.76894  -1.72731  5.93705
O    -3.90456  -1.46509  5.39222
O    -2.46833  -1.21129  7.07336
H    -0.06226  -1.87731  3.86760
H    -0.08679  -1.03528  5.39968
H    -1.17137  -3.14468  5.76818
H    -2.20750  -2.98881  4.31976
N    -0.42468  1.89543  4.93959
C    0.92204  1.85345  4.37549
H    -0.63595  2.68428  5.54980
H    0.98869  2.50945  3.49731
H    1.20069  0.83712  4.07949
H    1.62013  2.21264  5.13912
Pb    -4.11753  0.38832  6.76558
