28
Energy: -609833.6949771  eV PBE+vdW (tier 2 basis)
C    -0.14451  -0.30235  0.24684
C    -0.18785  -0.52624  1.74046
O    0.75050  -0.99721  2.37596
H    0.78840  0.21194  -0.01003
H    -0.99579  0.27093  -0.13925
H    -0.12251  -1.27987  -0.25319
N    -1.36911  -0.17328  2.36458
C    -1.60143  -0.45409  3.76961
C    -2.96126  -1.18251  3.93328
O    -3.94501  -0.58558  4.37065
H    -2.13739  0.18687  1.80760
H    -0.77647  -1.11752  4.06925
C    -1.58094  0.79855  4.65393
C    -0.20193  1.50024  4.59168
C    -0.21598  2.68743  5.48202
O    0.27844  2.63080  6.67698
O    -0.76540  3.79811  5.10294
H    -1.80430  0.49484  5.68600
H    -2.37737  1.48705  4.34288
H    -0.00449  1.83235  3.56303
H    0.59775  0.81991  4.90800
N    -3.00575  -2.48615  3.55987
C    -1.96684  -3.29408  2.93566
H    -3.93481  -2.89200  3.63652
H    -2.15814  -4.34801  3.16340
H    -0.97504  -3.04224  3.32647
H    -1.94865  -3.17047  1.84259
Pb    -0.32210  4.77445  7.09682
