28
Energy: -609833.8174349  eV PBE+vdW (tier 2 basis)
C    -0.32722  0.39785  0.12604
C    -0.66938  -0.75851  1.03192
O    -0.50108  -1.93384  0.70994
H    0.71307  0.28969  -0.20368
H    -0.45711  1.38012  0.59517
H    -0.95718  0.34285  -0.77115
N    -1.18611  -0.42878  2.27008
C    -1.62231  -1.46066  3.19435
C    -3.10030  -1.88291  2.89883
O    -4.03271  -1.45576  3.57792
H    -1.52154  0.51924  2.41565
H    -0.98327  -2.33205  2.98679
C    -1.48404  -1.02318  4.64882
C    -0.00812  -0.75475  5.02743
C    0.08323  -0.30279  6.44150
O    0.54599  -1.08429  7.36041
O    -0.33722  0.87086  6.78894
H    -1.89712  -1.81674  5.28576
H    -2.09657  -0.12924  4.83063
H    0.39836  0.03667  4.37980
H    0.60084  -1.65848  4.90499
N    -3.21099  -2.71964  1.84637
C    -4.49449  -3.16287  1.32288
H    -2.36024  -2.91340  1.31704
H    -4.44750  -4.23076  1.08023
H    -4.77313  -2.60397  0.41847
H    -5.25816  -2.99654  2.08872
Pb    0.16371  0.47741  8.96983
