28
Energy: -609835.1650489  eV PBE+vdW (tier 2 basis)
C    -1.75671  -0.35355  -0.94260
C    -0.94276  -0.04678  0.28854
O    0.28164  -0.04038  0.32252
H    -1.24327  -1.12142  -1.53003
H    -1.81232  0.55280  -1.56220
H    -2.77896  -0.68106  -0.71785
N    -1.66141  0.23358  1.44746
C    -0.94090  0.82291  2.56709
C    -0.00247  -0.20934  3.21047
O    1.05572  0.12079  3.83332
H    -2.65768  0.41456  1.37514
H    -0.27051  1.60583  2.17996
C    -1.91951  1.42576  3.61831
C    -1.61088  2.89577  4.00834
C    -0.17024  2.95245  4.42253
O    0.71306  3.28435  3.54881
O    0.18792  2.48017  5.55728
H    -1.92494  0.81250  4.52875
H    -2.94188  1.39323  3.21815
H    -2.26133  3.18946  4.84059
H    -1.77485  3.56943  3.15944
N    -0.36319  -1.48014  3.14029
C    0.41327  -2.59379  3.66873
H    -1.17158  -1.66988  2.55088
H    1.23417  -2.85144  2.98592
H    0.83162  -2.32565  4.64370
H    -0.24555  -3.45923  3.78332
Pb    2.24755  1.91909  4.62015
