28
Energy: -609835.2321124  eV PBE+vdW (tier 2 basis)
C    0.29331  0.46936  0.77898
C    -0.05401  0.57665  2.23372
O    0.88321  0.64494  3.09773
H    0.98811  -0.36849  0.64044
H    0.81618  1.38322  0.46559
H    -0.58296  0.32581  0.13899
N    -1.33774  0.56700  2.56171
C    -1.95472  0.55517  3.88411
C    -3.15557  -0.41127  3.70625
O    -3.56578  -0.64633  2.56694
H    -2.03795  0.31113  1.84791
H    -1.22791  0.16425  4.60812
C    -2.47241  1.96916  4.30989
C    -1.76528  2.59846  5.53109
C    -0.28036  2.57627  5.32456
O    0.43227  1.71862  5.95875
O    0.24942  3.32339  4.42607
H    -3.54620  1.91814  4.53223
H    -2.36787  2.63753  3.44640
H    -2.00073  2.06004  6.45583
H    -2.10601  3.63720  5.63367
N    -3.72403  -0.92962  4.81517
C    -3.37446  -0.69413  6.20852
H    -4.54631  -1.49632  4.62248
H    -3.88429  0.18936  6.62086
H    -2.29214  -0.56846  6.32839
H    -3.66952  -1.56757  6.79921
Pb    2.14777  1.98848  4.41039
