22
Energy: -12020.0143083 eV PBE+vdW (tier 2 basis)
N    -1.037524  -1.344001  -0.191580
C    -0.552418  -0.632671  0.989454
C    0.540053  0.396482  0.633718
O    0.691016  1.454341  1.487481
H    -1.619229  -0.718554  -0.750361
H    0.053252  1.373784  2.218556
H    -1.410306  -0.092171  1.424306
C    -0.067125  -1.647280  2.070962
C    0.120725  -0.997501  3.454971
C    1.169852  -2.430693  1.619034
C    0.190356  -1.999414  4.610360
H    -0.910954  -2.353359  2.142912
H    -0.725795  -0.312310  3.644628
H    1.034530  -0.380851  3.461200
H    1.004547  -2.916766  0.649219
H    1.413162  -3.224523  2.336258
H    2.051265  -1.780297  1.525530
H    1.063225  -2.659840  4.526540
H    -0.706875  -2.633734  4.640412
H    0.265761  -1.481463  5.575500
O    1.254541  0.307289  -0.336765
H    -0.237060  -1.565469  -0.789335
