22
Energy: -12020.0296061 eV PBE+vdW (tier 2 basis)
N    0.252354  -0.809591  0.177951
C    0.059592  -0.169158  1.478899
C    1.406459  0.140967  2.157449
O    1.529908  1.361408  2.763470
H    0.672002  -0.152001  -0.480052
H    0.692947  1.848918  2.671294
H    -0.491175  0.773618  1.307051
C    -0.807730  -1.071737  2.400521
C    -2.203809  -1.265174  1.782383
C    -0.879515  -0.541662  3.836813
C    -2.999357  -2.428003  2.377692
H    -0.298224  -2.052071  2.422203
H    -2.077756  -1.423595  0.702769
H    -2.773958  -0.326811  1.898916
H    -1.328920  0.464048  3.868725
H    0.107240  -0.488980  4.315017
H    -1.504504  -1.192138  4.460914
H    -2.461315  -3.378962  2.254069
H    -3.971168  -2.532385  1.876906
H    -3.199892  -2.297716  3.450176
O    2.336560  -0.630955  2.169862
H    0.931261  -1.567021  0.290972
