22
Energy: -12020.1071702 eV PBE+vdW (tier 2 basis)
N    -0.224836  0.212670  0.382638
C    -0.237565  -0.091728  1.814054
C    1.106136  0.178708  2.479992
O    1.402942  -0.175835  3.601621
H    -1.177284  0.331623  0.041247
H    0.277070  1.079249  0.198623
H    -0.929557  0.563412  2.388861
C    -0.690302  -1.549088  2.092936
C    0.249892  -2.574320  1.434772
C    -2.155916  -1.736491  1.682669
C    -0.023020  -4.023433  1.842228
H    -0.619977  -1.671472  3.185632
H    1.287701  -2.323573  1.705198
H    0.188344  -2.466704  0.342006
H    -2.542126  -2.706472  2.019293
H    -2.279116  -1.701390  0.589802
H    -2.796952  -0.960108  2.125410
H    0.014658  -4.145987  2.934663
H    0.726817  -4.698568  1.408495
H    -1.007398  -4.373030  1.502029
O    1.948002  0.922843  1.706617
H    2.746486  1.064693  2.251215
