22
Energy: -12020.212726 eV PBE+vdW (tier 2 basis)
N    -0.302635  0.302760  0.281983
C    0.026428  0.080400  1.704950
C    1.550404  -0.149275  1.804852
O    2.094658  -0.589694  0.651537
H    -0.244200  1.289513  0.032337
H    1.341079  -0.515822  0.000520
H    -0.193223  0.954733  2.340056
C    -0.781593  -1.133994  2.243588
C    -2.266837  -0.743804  2.413053
C    -0.212534  -1.713815  3.542555
C    -3.224571  -1.931847  2.520478
H    -0.716018  -1.914296  1.462337
H    -2.593222  -0.112034  1.570499
H    -2.355950  -0.107749  3.309284
H    0.803001  -2.103571  3.412109
H    -0.841836  -2.539031  3.898668
H    -0.170943  -0.951548  4.332836
H    -4.263863  -1.590239  2.614574
H    -3.008224  -2.560225  3.394212
H    -3.165127  -2.572745  1.628918
O    2.194684  0.030406  2.813952
H    -1.247925  -0.009236  0.063117
