22
Energy: -12020.1934217 eV PBE+vdW (tier 2 basis)
N    0.109097  -0.174430  -0.000554
C    -0.006407  -0.144329  1.459160
C    1.363494  -0.233651  2.132342
O    2.218820  -1.054065  1.864941
H    0.679928  -0.977306  -0.275611
H    0.600115  0.655566  -0.334043
H    -0.460400  0.814157  1.747624
C    -0.908317  -1.303746  1.959011
C    -2.305338  -1.261074  1.305985
C    -0.974216  -1.357036  3.491040
C    -3.169430  -0.044901  1.647681
H    -0.422596  -2.233656  1.614409
H    -2.834263  -2.179336  1.607606
H    -2.178192  -1.315678  0.216639
H    0.003086  -1.589997  3.934375
H    -1.674288  -2.138905  3.814896
H    -1.312715  -0.405226  3.923355
H    -3.343826  0.055361  2.727809
H    -4.152713  -0.127464  1.165827
H    -2.716731  0.891086  1.292083
O    1.546518  0.735022  3.075042
H    2.439372  0.585608  3.445382
