22
Energy: -12020.1632819 eV PBE+vdW (tier 2 basis)
N    -0.176174  -0.155538  -0.139858
C    -0.380195  -0.164604  1.326093
C    0.953814  0.265858  1.982407
O    2.014290  0.131444  1.162543
H    -0.369789  0.763790  -0.536220
H    1.601595  -0.149061  0.296135
H    -1.135278  0.569471  1.648570
C    -0.859662  -1.577687  1.778896
C    -1.706763  -1.580005  3.072673
C    0.264108  -2.621488  1.793609
C    -0.979164  -1.440120  4.411500
H    -1.570948  -1.873670  0.985434
H    -2.269648  -2.527848  3.073776
H    -2.465636  -0.785567  2.984527
H    -0.140353  -3.612127  2.041907
H    1.034841  -2.381049  2.537637
H    0.760135  -2.700397  0.817180
H    -1.705210  -1.484853  5.234512
H    -0.432786  -0.493500  4.484454
H    -0.259421  -2.254423  4.571260
O    1.050269  0.678140  3.116932
H    -0.793025  -0.823766  -0.600968
