22
Energy: -12020.0470459 eV PBE+vdW (tier 2 basis)
N    0.071290  0.324926  0.342014
C    -0.078605  -0.058042  1.759019
C    1.346032  -0.195803  2.302025
O    1.908819  -1.208718  2.649882
H    -0.843060  0.530069  -0.060086
H    0.618937  1.183289  0.276080
H    -0.560682  0.734950  2.368837
C    -0.881276  -1.362851  1.925474
C    -2.195757  -1.357363  1.114993
C    -1.133043  -1.663252  3.409579
C    -3.215303  -0.272526  1.480697
H    -0.255396  -2.169415  1.512964
H    -2.663789  -2.344978  1.248993
H    -1.956758  -1.297712  0.042292
H    -0.192892  -1.824325  3.949577
H    -1.739110  -2.572946  3.519072
H    -1.673076  -0.844374  3.906918
H    -3.541133  -0.349893  2.526476
H    -4.112203  -0.357855  0.852991
H    -2.817927  0.743714  1.338826
O    1.960651  1.026631  2.327999
H    2.873279  0.860475  2.634379
