22
Energy: -12020.0435624 eV PBE+vdW (tier 2 basis)
N    -0.419483  0.463772  0.252863
C    -0.068990  -0.037068  1.591561
C    1.444099  -0.214695  1.675049
O    2.155023  0.307379  2.509920
H    0.136908  1.290285  0.030232
H    -1.392169  0.770190  0.247168
H    -0.303588  0.674314  2.406018
C    -0.798242  -1.372640  1.896218
C    -2.324393  -1.164150  1.872577
C    -0.319602  -1.964818  3.226942
C    -3.145194  -2.442576  2.061885
H    -0.535089  -2.063661  1.078425
H    -2.611604  -0.721999  0.906723
H    -2.598933  -0.429224  2.649273
H    -0.550782  -1.294389  4.068162
H    0.764422  -2.138932  3.232745
H    -0.800229  -2.930029  3.426111
H    -2.859612  -3.209104  1.327077
H    -4.216242  -2.239895  1.929181
H    -3.017600  -2.875716  3.062345
O    1.932440  -1.041514  0.711736
H    2.895861  -1.084531  0.868789
