22
Energy: -12020.180578 eV PBE+vdW (tier 2 basis)
N    -0.431047  0.246285  0.109002
C    -0.042594  -0.084494  1.498308
C    1.487758  -0.376639  1.496987
O    2.076793  -0.053403  0.331066
H    -1.135261  0.980748  0.075787
H    1.308497  0.274111  -0.225196
H    -0.150006  0.838020  2.092789
C    -0.886138  -1.203351  2.171462
C    -2.403184  -1.018940  1.930918
C    -0.583163  -1.343794  3.670557
C    -3.025631  0.258029  2.502800
H    -0.601958  -2.152651  1.682210
H    -2.906579  -1.891719  2.374723
H    -2.624837  -1.076797  0.853699
H    -0.756158  -0.398905  4.205395
H    0.458286  -1.628661  3.841636
H    -1.239160  -2.104386  4.116881
H    -4.102658  0.290032  2.292281
H    -2.587006  1.170167  2.071539
H    -2.903319  0.322586  3.591604
O    2.107012  -0.816387  2.440800
H    -0.823647  -0.567851  -0.365246
