22
Energy: -12019.9009425 eV PBE+vdW (tier 2 basis)
N    -0.327274  -0.167420  0.209247
C    -0.085960  -0.047355  1.645816
C    1.436713  -0.126839  1.822942
O    2.031867  0.872764  2.534622
H    0.132250  -1.010901  -0.139415
H    1.356011  1.524884  2.788213
H    -0.444526  0.952417  1.956415
C    -0.763403  -1.093109  2.585059
C    -2.292311  -1.168047  2.349462
C    -0.441956  -0.792745  4.054631
C    -2.745239  -2.311829  1.437761
H    -0.321886  -2.071010  2.329258
H    -2.657690  -0.203303  1.956872
H    -2.789794  -1.284514  3.324048
H    -0.834421  0.192376  4.354105
H    0.637220  -0.802889  4.258468
H    -0.905407  -1.540517  4.711636
H    -2.296212  -2.252673  0.437176
H    -3.836767  -2.313506  1.313533
H    -2.457874  -3.284395  1.861829
O    2.100686  -1.034061  1.381458
H    -1.324028  -0.246329  0.012866
