22
Energy: -12020.0409373 eV PBE+vdW (tier 2 basis)
N    0.387019  -0.036940  3.351716
C    0.433016  -0.636204  2.013470
C    0.691253  0.488750  1.015934
O    1.621551  0.557318  0.243033
H    -0.474676  0.494659  3.479494
H    0.413193  -0.761446  4.067750
H    1.334427  -1.265070  1.968964
C    -0.782623  -1.504990  1.569422
C    -1.033694  -2.673390  2.554353
C    -0.585857  -2.025681  0.139396
C    -2.085701  -2.402374  3.633330
H    -1.670116  -0.848825  1.577499
H    -0.079991  -2.972236  3.022395
H    -1.354790  -3.551357  1.973712
H    -1.457973  -2.612226  -0.179106
H    0.298155  -2.677451  0.073962
H    -0.448080  -1.214314  -0.587521
H    -2.229715  -3.281818  4.276025
H    -3.057792  -2.162436  3.179149
H    -1.814436  -1.559651  4.282745
O    -0.284422  1.443315  1.077557
H    -0.029746  2.127366  0.428721
