22
Energy: -12020.0711143 eV PBE+vdW (tier 2 basis)
N    -0.577829  0.406924  -0.122694
C    0.089045  -0.170253  1.052373
C    1.474398  -0.731959  0.731734
O    2.507876  -0.394654  1.273891
H    -0.647489  -0.284624  -0.870107
H    -0.025891  1.180752  -0.494011
H    0.293078  0.656052  1.747179
C    -0.868359  -1.144193  1.794373
C    -0.321454  -1.618009  3.160832
C    -1.396620  -2.295995  0.931033
C    0.692228  -2.767431  3.157959
H    -1.730068  -0.492602  2.014672
H    -1.189531  -1.924930  3.765478
H    0.114379  -0.751764  3.683923
H    -2.107876  -2.900529  1.511198
H    -0.600038  -2.962327  0.578192
H    -1.937847  -1.920770  0.052612
H    1.619702  -2.512667  2.630887
H    0.280175  -3.675388  2.697857
H    0.971852  -3.023981  4.188600
O    1.456684  -1.645037  -0.286937
H    2.388197  -1.906382  -0.421535
