22
Energy: -12020.1372096 eV PBE+vdW (tier 2 basis)
N    0.093815  0.418805  0.086084
C    -0.058776  0.090658  1.504934
C    1.350132  0.029918  2.079314
O    2.258660  -0.618608  1.602520
H    0.697214  -0.274309  -0.360870
H    -0.808578  0.394272  -0.386646
H    -0.583696  0.922906  1.995850
C    -0.803373  -1.242675  1.835579
C    -2.212983  -1.286548  1.209749
C    -0.835644  -1.519425  3.345081
C    -3.205020  -0.227407  1.699353
H    -0.215755  -2.043894  1.355403
H    -2.626855  -2.288101  1.406464
H    -2.123527  -1.225014  0.113476
H    0.170188  -1.700570  3.745814
H    -1.439889  -2.411037  3.561940
H    -1.264474  -0.679282  3.909030
H    -3.367213  -0.285543  2.783921
H    -4.181693  -0.362173  1.216167
H    -2.870065  0.794365  1.471370
O    1.489356  0.773657  3.209297
H    2.414176  0.647007  3.501171
