22
Energy: -12020.1761746 eV PBE+vdW (tier 2 basis)
N    -0.204334  0.336307  0.335765
C    -0.020453  0.072468  1.779218
C    1.515451  0.016480  2.039760
O    2.230831  0.542005  1.027146
H    -0.276539  -0.535567  -0.190985
H    1.530468  0.768312  0.347496
H    -0.364721  0.979963  2.305686
C    -0.789531  -1.141105  2.374334
C    -2.220272  -1.234030  1.805952
C    -0.807671  -1.073981  3.908341
C    -3.016544  -2.447880  2.290504
H    -0.243973  -2.054850  2.074644
H    -2.183556  -1.269002  0.706515
H    -2.767109  -0.309000  2.061771
H    -1.415453  -0.219941  4.247251
H    0.203643  -0.961753  4.309400
H    -1.245476  -1.983481  4.337858
H    -2.471091  -3.383064  2.096883
H    -3.980782  -2.512912  1.769343
H    -3.228336  -2.404645  3.366164
O    2.034182  -0.419974  3.043323
H    -1.052736  0.868649  0.153630
