22
Energy: -12019.930668 eV PBE+vdW (tier 2 basis)
N    -0.509257  -1.160603  -0.323618
C    -0.447953  -0.631693  1.040629
C    0.728972  0.343853  1.216939
O    0.477261  1.483577  1.935577
H    -0.738006  -0.407585  -0.974185
H    -0.446537  1.470978  2.240599
H    -1.389541  -0.082350  1.213184
C    -0.431939  -1.804611  2.066582
C    -0.583380  -1.351959  3.538600
C    0.738083  -2.773014  1.859233
C    0.688294  -0.937319  4.288438
H    -1.353330  -2.351174  1.808482
H    -1.046386  -2.186984  4.087204
H    -1.326396  -0.536108  3.586566
H    0.703290  -3.225219  0.860156
H    0.679216  -3.594382  2.586868
H    1.714519  -2.286374  1.977106
H    1.227170  -0.114197  3.804109
H    1.388583  -1.776915  4.385294
H    0.435788  -0.607514  5.305207
O    1.829321  0.165516  0.749635
H    0.424227  -1.479924  -0.593605
