22
Energy: -12020.0039242 eV PBE+vdW (tier 2 basis)
N    -0.835941  0.784632  0.905929
C    -0.000720  0.321595  2.008336
C    1.271502  -0.398415  1.514249
O    2.142773  -0.815084  2.479414
H    -0.496175  1.682718  0.565528
H    1.758726  -0.637825  3.356770
H    0.365998  1.210218  2.551740
C    -0.832536  -0.499307  3.047166
C    -1.607510  -1.678319  2.432891
C    -1.786178  0.446245  3.785682
C    -0.763266  -2.821576  1.865073
H    -0.132077  -0.917567  3.796367
H    -2.279936  -1.279966  1.657098
H    -2.265914  -2.076993  3.220345
H    -2.476517  0.919026  3.074728
H    -1.239956  1.244474  4.308580
H    -2.379803  -0.099350  4.531281
H    -0.046235  -3.202325  2.606969
H    -0.191024  -2.526459  0.976638
H    -1.405219  -3.661744  1.568695
O    1.538926  -0.577264  0.349411
H    -0.726915  0.143288  0.117110
