22
Energy: -12020.1135735 eV PBE+vdW (tier 2 basis)
N    0.449088  -0.733055  4.071859
C    0.386108  -0.957990  2.624227
C    1.380964  -0.007547  1.966847
O    2.294946  -0.324894  1.238028
H    0.016413  0.158549  4.316542
H    -0.048744  -1.467084  4.572824
H    0.785109  -1.963936  2.427681
C    -1.018994  -0.844162  1.953535
C    -1.962205  -1.923163  2.513783
C    -0.918560  -0.911154  0.424682
C    -3.433393  -1.745843  2.131874
H    -1.422717  0.145429  2.234544
H    -1.891652  -1.927291  3.612987
H    -1.607376  -2.913177  2.179675
H    -0.463315  -1.858523  0.099865
H    -0.307971  -0.095710  0.015678
H    -1.908356  -0.837706  -0.042876
H    -4.057395  -2.510873  2.612853
H    -3.595375  -1.828283  1.049051
H    -3.810005  -0.762910  2.450047
O    1.112274  1.293875  2.284644
H    1.802155  1.824449  1.841649
