22
Energy: -12019.9562184 eV PBE+vdW (tier 2 basis)
N    -0.627498  1.149345  1.150162
C    0.080736  0.216128  2.009294
C    0.974906  -0.655586  1.123962
O    1.981196  -1.317806  1.762250
H    -0.726196  0.741794  0.218677
H    1.970615  -1.088440  2.708537
H    0.766468  0.787842  2.668059
C    -0.804954  -0.642196  2.980426
C    -1.809551  -1.579271  2.281360
C    -1.516692  0.290784  3.969973
C    -1.240250  -2.906318  1.772661
H    -0.111811  -1.269737  3.571398
H    -2.291440  -1.035735  1.452381
H    -2.616525  -1.795171  2.998684
H    -2.290419  0.897690  3.475885
H    -0.814146  0.980116  4.458833
H    -2.021706  -0.291782  4.751663
H    -0.747047  -3.462441  2.583094
H    -0.511282  -2.773813  0.964905
H    -2.044271  -3.542873  1.379676
O    0.831788  -0.783841  -0.069316
H    -1.548921  1.384311  1.512434
