22
Energy: -12019.9698879 eV PBE+vdW (tier 2 basis)
N    -0.608343  -0.410088  -0.160795
C    -0.247303  -0.133471  1.226820
C    1.277504  -0.275234  1.310779
O    1.951450  0.698437  1.985792
H    -1.605375  -0.601024  -0.248786
H    1.319180  1.380114  2.272787
H    -0.522472  0.914116  1.450412
C    -0.903124  -1.047670  2.312765
C    -2.443575  -1.050926  2.215555
C    -0.421446  -0.695239  3.726866
C    -3.140496  0.294943  2.435901
H    -0.564537  -2.072236  2.083999
H    -2.814962  -1.776982  2.955643
H    -2.745788  -1.463227  1.239657
H    -0.602969  0.361915  3.974156
H    0.651922  -0.886189  3.853212
H    -0.951747  -1.297591  4.476892
H    -4.230524  0.177236  2.379405
H    -2.857650  1.039267  1.678076
H    -2.911204  0.721856  3.421560
O    1.879388  -1.207812  0.833642
H    -0.100930  -1.241197  -0.472340
