22
Energy: -12020.1974908 eV PBE+vdW (tier 2 basis)
N    0.077130  0.162051  0.183839
C    -0.084686  0.098766  1.636039
C    1.251989  -0.061744  2.362303
O    2.220588  -0.651417  1.927719
H    0.521232  1.043452  -0.075396
H    0.722934  -0.570554  -0.117782
H    -0.526774  1.048561  1.965696
C    -1.084977  -1.036519  2.017417
C    -1.539493  -1.011232  3.487788
C    -0.573960  -2.428062  1.628781
C    -2.212795  0.283743  3.946572
H    -1.962301  -0.810949  1.387962
H    -0.687709  -1.239534  4.148289
H    -2.245091  -1.847006  3.617268
H    -0.311866  -2.488252  0.564627
H    -1.353736  -3.179213  1.813777
H    0.312060  -2.717887  2.211231
H    -1.509460  1.125806  3.986857
H    -2.632442  0.168192  4.954842
H    -3.038506  0.564261  3.276093
O    1.254759  0.540417  3.587296
H    2.135104  0.360118  3.972781
