22
Energy: -12020.1110706 eV PBE+vdW (tier 2 basis)
N    -0.105065  -0.020007  -0.131772
C    0.128758  -0.101322  1.314008
C    1.599159  -0.376506  1.625314
O    2.293697  -1.208962  1.076809
H    0.355880  0.808127  -0.510743
H    0.332225  -0.820912  -0.592414
H    -0.118763  0.877511  1.747353
C    -0.842736  -1.134726  1.956952
C    -0.815692  -1.129492  3.503652
C    -0.723724  -2.541006  1.358848
C    0.255479  -1.980882  4.194083
H    -1.827454  -0.739703  1.658766
H    -1.802257  -1.479604  3.845894
H    -0.734058  -0.087202  3.851684
H    -0.937025  -2.532137  0.282327
H    -1.457564  -3.212048  1.826987
H    0.272596  -2.978133  1.502496
H    0.180065  -1.870469  5.284248
H    1.275923  -1.695286  3.911345
H    0.137243  -3.048260  3.965972
O    2.084902  0.457272  2.592384
H    3.021903  0.206896  2.717722
