22
Energy: -12020.15977 eV PBE+vdW (tier 2 basis)
N    -1.585826  1.219439  1.595516
C    -0.969635  0.052600  2.223956
C    0.462916  0.420294  2.569941
O    1.143507  1.225516  1.968271
H    -2.373458  0.938433  1.012377
H    -0.901892  1.688720  0.999610
H    -1.488646  -0.152675  3.171784
C    -1.028078  -1.263931  1.369385
C    -0.705777  -2.550882  2.151086
C    -0.189577  -1.177126  0.090914
C    -1.579218  -2.816839  3.378826
H    -2.092980  -1.326383  1.076256
H    0.354763  -2.546824  2.446882
H    -0.814369  -3.389880  1.445298
H    -0.395074  -0.259440  -0.475619
H    -0.404758  -2.029915  -0.566777
H    0.887091  -1.193796  0.313162
H    -1.385463  -3.819502  3.782631
H    -2.649738  -2.763883  3.130688
H    -1.385893  -2.101626  4.188902
O    0.932439  -0.282308  3.638150
H    1.861665  -0.001993  3.752762
