22
Energy: -12020.1610282 eV PBE+vdW (tier 2 basis)
N    0.329351  0.704295  3.435754
C    0.356558  -0.405773  2.488671
C    0.859802  0.140325  1.161464
O    0.712827  1.282986  0.778101
H    0.064565  1.563476  2.951402
H    -0.350279  0.532111  4.175489
H    1.088667  -1.156292  2.829406
C    -1.008721  -1.162737  2.316532
C    -0.837185  -2.547509  1.668881
C    -2.076090  -0.308807  1.626079
C    -2.057949  -3.458791  1.815592
H    -1.332560  -1.336058  3.360129
H    0.037170  -3.040961  2.122918
H    -0.591975  -2.429111  0.602300
H    -3.069935  -0.763558  1.721545
H    -1.864371  -0.193400  0.553061
H    -2.133395  0.697373  2.062113
H    -2.333727  -3.591062  2.872221
H    -1.854928  -4.454916  1.400334
H    -2.936882  -3.061129  1.290718
O    1.486692  -0.807838  0.413471
H    1.734363  -0.365626  -0.422181
