22
Energy: -12020.1479556 eV PBE+vdW (tier 2 basis)
N    -0.002255  -0.467308  0.168441
C    -0.275102  -0.254234  1.585129
C    0.974490  0.096394  2.394744
O    2.120504  -0.103917  2.048486
H    0.221254  0.422839  -0.275943
H    0.828079  -1.050060  0.055960
H    -0.955568  0.607765  1.663961
C    -1.022919  -1.448351  2.265042
C    -0.139798  -2.665221  2.622210
C    -2.260136  -1.832128  1.448468
C    0.555763  -3.405178  1.474376
H    -1.371373  -1.046763  3.230138
H    -0.789120  -3.374257  3.160275
H    0.620364  -2.353600  3.356378
H    -1.992272  -2.190549  0.448056
H    -2.926553  -0.968874  1.313095
H    -2.827252  -2.619367  1.964311
H    1.386548  -2.822142  1.054981
H    -0.135867  -3.649850  0.657640
H    0.985207  -4.349136  1.835947
O    0.660510  0.661560  3.596407
H    1.511497  0.820376  4.049896
