20
Energy: -565820.674682 eV PBE+vdW (tier 2 basis)
C    -1.906295  0.626731  0.662403
C    -0.482044  0.489762  1.055881
O    0.466848  1.164186  0.523778
H    -2.509103  -0.254869  0.902483
H    -1.986086  0.838141  -0.409455
H    -2.335461  1.470105  1.230918
N    -0.057240  -0.394741  1.982545
C    -0.770701  -1.504541  2.546979
C    -1.724977  -1.071331  3.734080
O    -2.153313  0.065071  3.809744
H    0.937369  -0.319474  2.208752
H    -1.433889  -1.988227  1.811003
H    -0.040686  -2.249250  2.883639
N    -2.028347  -2.073197  4.605306
C    -2.731890  -1.832445  5.847985
H    -1.590394  -2.986224  4.478742
H    -2.031177  -1.616969  6.676222
H    -3.278103  -2.747641  6.116721
H    -3.396322  -0.968742  5.726894
Hg    0.347809  3.295652  -0.213621
