20
Energy: -565820.730871 eV PBE+vdW (tier 2 basis)
C    0.563303  0.086113  0.042660
C    0.004333  0.046020  1.414311
O    0.577541  -0.581914  2.429090
H    -0.112005  0.611168  -0.639006
H    0.735906  -0.932496  -0.332840
H    1.529948  0.614726  0.047621
N    -1.163060  0.516018  1.730430
C    -1.767861  0.788663  3.005980
C    -3.188752  1.259230  2.739956
O    -3.653103  1.200050  1.521506
H    -2.942668  0.855873  0.925855
H    -1.828942  -0.121136  3.631796
H    -1.210361  1.546500  3.580396
N    -3.986808  1.714141  3.664287
C    -3.736219  1.848544  5.102318
H    -4.913881  2.001341  3.334693
H    -3.867443  2.898718  5.389415
H    -2.725117  1.522829  5.358288
H    -4.462252  1.233629  5.648395
Hg    2.652442  -1.142014  2.555845
