20
Energy: -565820.860434 eV PBE+vdW (tier 2 basis)
C    0.350232  -0.074881  0.039717
C    -0.017274  0.398984  1.403884
O    0.838678  0.632704  2.343094
H    0.962406  0.695206  -0.457366
H    -0.526776  -0.267624  -0.586846
H    0.941639  -0.998216  0.116520
N    -1.289488  0.568111  1.731588
C    -1.771228  0.996955  3.038168
C    -3.295671  1.049867  2.914347
O    -3.818770  0.744885  1.841638
H    -2.044303  0.313784  1.076008
H    -1.450558  0.304937  3.831811
H    -1.388610  2.002575  3.285475
N    -4.020311  1.440421  3.998571
C    -5.460611  1.511376  3.997489
H    -3.534648  1.568569  4.888233
H    -5.900665  0.570492  4.387209
H    -5.823803  1.647053  2.971641
H    -5.780436  2.316577  4.673231
Hg    3.024198  0.894227  1.967588
