20
Energy: -565821.033022 eV PBE+vdW (tier 2 basis)
C    -2.395265  0.825421  0.344489
C    -0.972674  0.853729  0.880733
O    -0.158790  1.626852  0.318337
H    -3.130465  0.706957  1.147933
H    -2.458441  -0.024768  -0.353872
H    -2.582876  1.747034  -0.213775
N    -0.581492  0.100218  1.928713
C    -1.274634  -1.037710  2.479723
C    -1.714275  -0.816596  3.922346
O    -1.701715  0.389346  4.423920
H    -1.341847  1.019598  3.761891
H    -2.174859  -1.266749  1.879319
H    -0.643294  -1.938694  2.419641
N    -2.130710  -1.802743  4.663644
C    -2.631111  -1.712147  6.046356
H    -2.127074  -2.733723  4.243964
H    -3.673876  -2.052466  6.064415
H    -2.565440  -0.681659  6.400657
H    -2.024858  -2.370804  6.679739
Hg    1.608695  0.889906  1.625827
