21
Energy: -575225.8911781  eV PBE+vdW (tier 2 basis)
N    -0.406301  0.511410  0.149335
C    -0.081267  0.070288  1.571489
C    1.466597  -0.126878  1.618810
O    2.125348  0.337596  0.668335
H    -1.166329  1.205026  0.119211
H    -0.670807  -0.274495  -0.460001
H    -0.266010  0.952893  2.202449
C    -0.955487  -1.078814  2.083561
C    -0.672777  -2.474954  1.506815
S    -1.843732  -3.661581  2.232425
C    -1.377715  -5.207171  1.465436
H    -2.009110  -0.799882  1.922934
H    -0.814938  -1.102815  3.173272
H    0.344740  -2.813708  1.760475
H    -0.782918  -2.539181  0.410937
H    -2.060681  -5.964361  1.868523
H    -0.339274  -5.467430  1.719774
H    -1.488554  -5.148318  0.372200
O    1.906595  -0.694071  2.666218
H    0.469111  0.922664  -0.240614
Hg    4.172922  -0.370933  2.208119
