21
Energy: -575226.3721856  eV PBE+vdW (tier 2 basis)
N    0.201090  -2.105210  0.096743
C    -0.155395  -0.963677  1.034560
C    0.716541  -1.302454  2.304806
O    1.098991  -0.365604  3.142274
H    -0.581406  -2.442320  -0.479663
H    0.982004  -1.869857  -0.531730
H    0.196256  -0.037761  0.559505
C    -1.703736  -0.962890  1.193170
C    -2.421697  -0.128457  2.268795
S    -2.223116  1.726635  2.165776
C    -3.338600  2.300808  3.480002
H    -2.018346  -1.995810  1.419395
H    -2.129886  -0.709852  0.210561
H    -2.180099  -0.449288  3.290592
H    -3.503917  -0.270567  2.129278
H    -4.356540  2.134424  3.100617
H    -3.158369  3.376987  3.589653
H    -3.174059  1.768929  4.422206
O    1.068354  -2.463008  2.438825
H    0.539866  -2.861226  0.757169
Hg    0.040062  1.457196  3.067469
