21
Energy: -575225.9310457  eV PBE+vdW (tier 2 basis)
N    -0.312877  1.022174  0.542856
C    -0.319769  0.573881  1.851361
C    1.142808  0.544004  2.395363
O    2.075461  0.263302  1.689775
H    0.489640  0.821531  -0.057683
H    -1.092249  1.539948  0.143528
H    -1.001415  1.165376  2.475334
C    -0.854097  -0.997758  1.902050
C    -1.068370  -1.466671  3.349829
S    -1.616976  -3.177405  3.126609
C    -3.413580  -3.063853  2.942441
H    -0.101123  -1.595130  1.372273
H    -1.788275  -0.990211  1.328617
H    -1.815145  -0.884442  3.902303
H    -0.130659  -1.504250  3.918135
H    -3.620095  -2.564688  1.986140
H    -3.870509  -2.518664  3.775248
H    -3.787419  -4.093369  2.883066
O    1.153978  0.851292  3.696383
H    2.084969  0.900544  4.007446
Hg    -1.472605  -4.573258  5.439803
