21
Energy: -575226.1349114  eV PBE+vdW (tier 2 basis)
N    1.272113  0.050585  0.167505
C    0.144829  0.039526  1.013960
C    0.461352  0.423085  2.492267
O    -0.322618  1.023683  3.234104
H    1.890148  -0.754900  0.119345
H    1.672295  0.931556  -0.141078
H    -0.547030  0.837368  0.673548
C    -0.546202  -1.361836  0.930582
C    -1.787566  -1.681997  1.766607
S    -3.313133  -0.743350  1.331005
C    -4.549605  -1.471617  2.434534
H    0.200701  -2.120084  1.215576
H    -0.758220  -1.523162  -0.135014
H    -1.637885  -1.624956  2.853078
H    -2.082729  -2.719416  1.533616
H    -5.455863  -0.861422  2.341868
H    -4.201839  -1.521749  3.471660
H    -4.747944  -2.479917  2.040990
O    1.651390  0.032055  2.876273
H    1.840409  0.291558  3.806828
Hg    -2.567169  1.462500  2.396556
