21
Energy: -575225.4386670  eV PBE+vdW (tier 2 basis)
N    0.611732  -0.387069  0.169463
C    0.072680  -0.242989  1.545307
C    1.113014  0.163989  2.613131
O    2.385289  -0.078047  2.502751
H    0.561502  0.487110  -0.363775
H    0.141226  -1.116052  -0.377380
H    -0.627263  0.611249  1.536275
C    -0.675781  -1.538984  1.957112
C    -1.086693  -1.711068  3.427284
S    -2.214335  -0.400247  4.060372
C    -2.496337  -0.889939  5.782042
H    -0.031827  -2.407444  1.738123
H    -1.561282  -1.634330  1.311818
H    -0.232354  -1.757583  4.112984
H    -1.665421  -2.639513  3.524588
H    -3.020624  -0.047639  6.250759
H    -1.548750  -1.099604  6.287945
H    -3.153797  -1.766646  5.759255
O    0.688747  0.686150  3.645842
H    -1.220626  0.532950  4.233659
Hg    2.956662  -0.806228  0.531494
