21
Energy: -575226.4211271  eV PBE+vdW (tier 2 basis)
N    0.479215  -2.354240  -0.099676
C    0.290564  -0.981909  0.514839
C    1.545986  -0.656309  1.332887
O    1.829555  0.577747  1.426766
H    -0.409922  -2.793619  -0.381845
H    0.954387  -2.956915  0.599730
H    0.122084  -0.262760  -0.293954
C    -0.893601  -1.023748  1.524458
C    -1.010257  0.177405  2.491034
S    -0.247696  -0.056421  4.178791
C    -0.822724  1.441132  5.022732
H    -0.841444  -1.959922  2.101913
H    -1.831423  -1.055768  0.950570
H    -2.068534  0.304085  2.763421
H    -0.652412  1.123092  2.067114
H    -0.351374  1.444899  6.012581
H    -1.910538  1.333744  5.137484
H    -0.577227  2.348976  4.462178
O    2.004745  -1.600127  2.022315
H    1.083473  -2.314103  -0.934939
Hg    2.259577  0.299209  3.695237
