21
Energy: -575225.3706327  eV PBE+vdW (tier 2 basis)
N    -0.075846  0.175607  0.028440
C    -0.461909  0.065668  1.440290
C    0.761081  0.183654  2.398151
O    1.919929  -0.043384  2.063740
H    -0.231556  1.114376  -0.349767
H    -0.552548  -0.496409  -0.577780
H    -1.114268  0.923913  1.676121
C    -1.256837  -1.238072  1.754181
C    -0.441247  -2.547178  1.704254
S    -1.485869  -4.030064  1.854052
C    -1.717141  -4.229627  3.613980
H    -2.100834  -1.280413  1.049963
H    -1.707098  -1.123096  2.749958
H    0.327737  -2.589571  2.489453
H    0.055237  -2.685577  0.732464
H    -2.345821  -5.119722  3.738957
H    -2.222931  -3.357653  4.055495
H    -0.746702  -4.384846  4.111200
O    0.518411  0.477973  3.657842
H    -0.406934  0.736892  3.840128
Hg    2.353336  -0.177363  -0.317651
