21
Energy: -575226.0652471  eV PBE+vdW (tier 2 basis)
N    0.665456  -0.525375  -0.098291
C    0.352676  -0.387463  1.381929
C    1.737258  -0.272359  2.094950
O    2.713965  -0.005899  1.368221
H    -0.024105  -0.052488  -0.698216
H    0.718045  -1.512223  -0.391770
H    -0.135911  0.592248  1.497134
C    -0.545316  -1.530115  1.874753
C    -1.044995  -1.363184  3.314882
S    -2.320457  -0.113667  3.535345
C    -2.997137  -0.511048  5.145081
H    0.017728  -2.475469  1.829649
H    -1.400171  -1.634498  1.189473
H    -0.182906  -1.072739  3.960066
H    -1.417823  -2.322421  3.703207
H    -2.210370  -0.465026  5.912389
H    -3.448256  -1.513797  5.130842
H    -3.762550  0.246331  5.349843
O    1.738476  -0.429281  3.360010
H    1.612516  -0.108110  -0.238059
Hg    4.064293  -0.011869  3.624359
