21
Energy: -575226.1348450  eV PBE+vdW (tier 2 basis)
N    -0.093915  0.409152  -0.214821
C    -0.119133  0.071541  1.264053
C    1.343880  0.304573  1.761365
O    1.591669  -0.078654  2.960419
H    -0.894479  0.983057  -0.511134
H    -0.066174  -0.430865  -0.810286
H    -0.729480  0.845159  1.753845
C    -0.697784  -1.324058  1.517912
C    -0.815581  -1.619959  3.018059
S    -0.920380  -3.366580  3.381277
C    -1.694800  -3.411614  4.994579
H    -0.068211  -2.080247  1.020716
H    -1.696258  -1.378483  1.058065
H    -1.644778  -1.079768  3.497335
H    0.127959  -1.249108  3.504841
H    -1.099873  -2.840682  5.722726
H    -1.724617  -4.467833  5.286945
H    -2.714384  -3.003441  4.940750
O    2.118931  0.872246  0.976779
H    0.804195  0.933907  -0.358845
Hg    3.817683  0.730259  3.090172
