21
Energy: -575226.2638516  eV PBE+vdW (tier 2 basis)
N    0.082424  -0.105126  0.238654
C    0.194747  -0.111642  1.754777
C    1.759426  -0.203781  1.955550
O    2.332634  0.265180  3.039199
H    -0.725770  -0.621396  -0.133160
H    0.062948  0.846587  -0.153702
H    -0.173814  0.860762  2.108252
C    -0.696247  -1.278151  2.275190
C    -0.614628  -1.842779  3.705458
S    -0.919131  -0.825382  5.234760
C    -2.395655  0.168520  4.890283
H    -0.478249  -2.164596  1.654771
H    -1.740557  -1.004009  2.062546
H    0.353079  -2.321000  3.918687
H    -1.373287  -2.636122  3.791411
H    -2.311936  0.767156  3.979259
H    -2.541545  0.810917  5.767571
H    -3.228383  -0.546005  4.822733
O    2.406812  -0.659512  1.027363
H    0.994728  -0.557261  -0.063549
Hg    1.077904  0.477545  4.714549
