21
Energy: -575225.9191480  eV PBE+vdW (tier 2 basis)
N    0.005139  -0.518947  0.053049
C    -0.170248  0.058223  1.451031
C    1.262148  0.503338  1.904436
O    1.384671  0.752293  3.144864
H    0.143803  -1.539085  0.056155
H    -0.795940  -0.311455  -0.559362
H    -0.710082  1.007085  1.314941
C    -0.969440  -0.844364  2.390533
C    -0.143157  -1.955349  3.085089
S    -1.064272  -3.191233  4.016140
C    -1.951593  -2.249366  5.251031
H    -1.808393  -1.279676  1.827463
H    -1.411691  -0.194358  3.155653
H    0.565751  -1.475305  3.783715
H    0.441471  -2.561203  2.376308
H    -2.407415  -2.987268  5.922218
H    -2.747518  -1.643079  4.791708
H    -1.265492  -1.600346  5.814570
O    2.120583  0.620945  1.012096
H    0.873633  -0.089108  -0.335091
Hg    3.551176  1.646231  3.022620
