21
Energy: -575225.5363198  eV PBE+vdW (tier 2 basis)
N    0.611933  0.257738  0.222700
C    0.227409  0.205109  1.631773
C    1.470946  0.286492  2.567079
O    2.621494  0.172696  2.169990
H    0.010902  0.867902  -0.338321
H    0.659149  -0.664209  -0.220379
H    -0.384362  1.097095  1.838885
C    -0.610877  -1.105065  1.877770
C    -1.303148  -1.220614  3.269958
S    -2.525863  -2.545579  3.230225
C    -1.611278  -4.011373  3.693233
H    0.036735  -1.979766  1.715987
H    -1.387341  -1.113773  1.101057
H    -1.884512  -0.314284  3.495045
H    -0.589074  -1.420521  4.079274
H    -1.195424  -3.896408  4.705344
H    -0.800254  -4.219472  2.979131
H    -2.332793  -4.837293  3.671800
O    1.259559  0.469425  3.858797
H    0.335401  0.690060  4.085208
Hg    2.992105  0.898073  -0.164349
