21
Energy: -575226.1946396  eV PBE+vdW (tier 2 basis)
N    -0.785495  0.041455  -0.030734
C    -0.023739  0.201018  1.265484
C    1.436831  0.452486  0.830260
O    1.685437  0.641449  -0.344209
H    -0.341295  0.664116  -0.731307
H    -0.692377  -0.908493  -0.413682
H    -0.363837  1.145703  1.722895
C    -0.181602  -0.947986  2.281271
C    -1.575091  -1.510472  2.632167
S    -2.909085  -0.279378  3.019067
C    -4.330809  -1.337533  3.392875
H    0.314316  -0.604336  3.198242
H    0.395833  -1.823087  1.942191
H    -1.494967  -2.091137  3.565329
H    -1.969558  -2.194671  1.868705
H    -4.118060  -1.773121  4.381042
H    -4.474720  -2.121735  2.642882
H    -5.204493  -0.678757  3.465315
O    2.281090  0.461509  1.848060
H    3.192272  0.656642  1.535597
Hg    -2.932112  0.435347  0.611541
