21
Energy: -575226.7033725  eV PBE+vdW (tier 2 basis)
N    -0.180262  0.030320  0.435907
C    0.012404  -0.416562  1.832805
C    0.719422  -1.784690  1.812603
O    0.537403  -2.646921  0.943939
H    -0.760359  0.871486  0.374208
H    0.713073  0.253578  -0.016277
H    0.698413  0.265829  2.356962
C    -1.318600  -0.507454  2.668096
C    -2.695076  -0.485120  1.985144
S    -3.334546  -1.883908  0.944513
C    -3.232938  -3.345516  2.011881
H    -1.334538  0.370433  3.331808
H    -1.248969  -1.365016  3.350643
H    -2.849259  0.385427  1.331333
H    -3.463687  -0.404929  2.770569
H    -3.959541  -3.179210  2.820129
H    -2.229728  -3.516373  2.412743
H    -3.559987  -4.195872  1.401198
O    1.517823  -1.939449  2.838810
H    1.950454  -2.823644  2.836560
Hg    -1.269504  -1.915406  -0.437575
