21
Energy: -575226.1900676  eV PBE+vdW (tier 2 basis)
N    -2.531742  -0.483980  1.293168
C    -1.265820  -0.306436  1.877717
C    -0.061104  -0.527828  0.909001
O    1.094601  -0.299813  1.272517
H    -2.980799  -1.395657  1.295479
H    -2.863594  0.165574  0.585766
H    -1.136688  0.763634  2.138980
C    -1.106263  -1.166632  3.163149
C    0.314036  -1.345113  3.709961
S    1.258562  0.233808  3.589173
C    2.979773  -0.302182  3.485532
H    -1.490441  -2.178982  2.964109
H    -1.763294  -0.725223  3.923058
H    0.910680  -2.063802  3.133533
H    0.306228  -1.677929  4.754745
H    3.125054  -0.694231  2.469848
H    3.192153  -1.076443  4.231282
H    3.604633  0.585243  3.639603
O    -0.393473  -0.935251  -0.287326
H    0.387770  -1.024860  -0.880016
Hg    1.314209  1.079120  6.166896
