21
Energy: -575226.1233477  eV PBE+vdW (tier 2 basis)
N    0.266806  0.757946  0.400685
C    -0.213250  0.168896  1.586443
C    0.873865  -0.032561  2.686936
O    0.652841  0.070473  3.897192
H    0.446187  1.756723  0.361203
H    0.752858  0.196274  -0.293143
H    -0.930355  0.875425  2.053768
C    -0.923575  -1.179203  1.232979
C    -1.503759  -2.080479  2.327193
S    -2.891567  -1.557554  3.405056
C    -4.103822  -0.810106  2.294436
H    -0.195472  -1.814883  0.703204
H    -1.692505  -0.924222  0.491908
H    -0.757360  -2.457534  3.041439
H    -1.934701  -2.969664  1.833314
H    -4.443568  -1.618399  1.628555
H    -3.697191  0.022854  1.712720
H    -4.941080  -0.482002  2.922162
O    2.050006  -0.330271  2.193031
H    2.727419  -0.441373  2.898720
Hg    -1.665135  0.356183  4.576899
