21
Energy: -575226.7917970  eV PBE+vdW (tier 2 basis)
N    -0.073860  -0.193151  0.147747
C    0.017875  -0.107458  1.635743
C    0.874740  -1.283791  2.127915
O    0.881670  -2.384809  1.570597
H    -0.710779  0.517101  -0.226670
H    0.838522  -0.047222  -0.300743
H    0.541095  0.820274  1.912341
C    -1.391073  -0.094336  2.311852
C    -2.082168  -1.406191  2.721426
S    -2.850260  -2.573360  1.485913
C    -4.228894  -1.633350  0.775989
H    -2.060592  0.536378  1.707774
H    -1.269219  0.456872  3.257340
H    -2.934393  -1.171836  3.377964
H    -1.423653  -2.073842  3.295339
H    -4.966929  -1.536225  1.585293
H    -4.651004  -2.252778  -0.024564
H    -3.932916  -0.650567  0.398169
O    1.551408  -0.988839  3.211639
H    2.081366  -1.755504  3.528423
Hg    -0.941937  -2.339364  -0.072484
