21
Energy: -575226.0760012  eV PBE+vdW (tier 2 basis)
N    0.199467  0.123410  -0.050234
C    -0.120202  0.217169  1.302950
C    1.122217  0.563952  2.219950
O    1.241841  0.117167  3.337098
H    0.884417  -0.547132  -0.393434
H    -0.192156  0.761420  -0.738459
H    -0.826012  1.051564  1.436278
C    -0.758996  -1.128935  1.863478
C    -1.680410  -0.815681  3.076196
S    -1.909974  -2.424516  3.870345
C    -0.559489  -2.470150  5.067054
H    0.068625  -1.799803  2.128740
H    -1.346738  -1.595546  1.065034
H    -2.661556  -0.458354  2.741175
H    -1.243570  -0.116181  3.795968
H    -0.562208  -3.465967  5.524595
H    -0.659243  -1.676797  5.815902
H    0.373160  -2.323954  4.500591
O    1.930367  1.409544  1.599488
H    2.674495  1.664796  2.189152
Hg    -4.057675  -2.436378  5.496739
