27
Energy: -35051.9003891 eV PBE+vdW (tier 2 basis)
N    1.587579  -0.978702  1.391318
C    0.438711  -0.439870  2.157951
C    0.770050  -0.426679  3.653531
O    1.338150  -1.355837  4.217815
H    1.346085  -0.926489  0.396972
H    2.387650  -0.347628  1.502110
H    0.223907  0.596651  1.843123
C    -0.857353  -1.251851  1.897784
C    -1.084709  -2.616690  2.579014
C    -0.124418  -3.765879  2.250426
N    1.054818  -3.822759  3.202253
C    2.283246  -4.305499  2.609595
N    2.660782  -5.474395  3.096414
N    2.863188  -3.528007  1.715381
H    -0.941207  -1.372323  0.806021
H    -1.705353  -0.612168  2.180392
H    -2.085915  -2.940710  2.261363
H    -1.160611  -2.497268  3.671899
H    0.241085  -3.689031  1.217105
H    -0.662111  -4.725375  2.314662
H    1.225781  -2.833672  3.554474
H    3.527761  -5.863477  2.721722
H    2.429963  -2.581202  1.534774
H    3.739424  -3.789124  1.270903
O    0.367748  0.611605  4.377783
H    -0.019788  1.321439  3.831023
Ca    1.196698  -5.609023  4.730936
