27
Energy: -35052.1439743 eV PBE+vdW (tier 2 basis)
N    -0.806273  -0.458821  -1.106192
C    -0.520890  -0.042743  0.320222
C    0.951082  0.424933  0.253324
O    1.563260  0.396986  -0.800477
H    -1.607181  0.037289  -1.506792
H    0.081849  -0.185477  -1.609780
H    -1.137218  0.841960  0.537477
C    -0.775571  -1.124251  1.374743
C    -2.244802  -1.424627  1.742644
C    -2.950914  -2.596611  1.047743
N    -3.443465  -2.356119  -0.317970
C    -2.889266  -2.813102  -1.467425
N    -3.504158  -2.755052  -2.661921
N    -1.616095  -3.317673  -1.534758
H    -0.275210  -0.753592  2.279113
H    -0.230333  -2.043855  1.105412
H    -2.859413  -0.515591  1.652428
H    -2.257935  -1.672877  2.813310
H    -3.829646  -2.870294  1.646122
H    -2.309173  -3.489907  1.050339
H    -4.411831  -2.054697  -0.384665
H    -4.440184  -2.354701  -2.673498
H    -0.961008  -1.493065  -1.230502
H    -1.247678  -3.646597  -0.642687
O    1.401405  0.846740  1.422636
H    2.325942  1.161499  1.330259
Ca    -2.084217  -4.149221  -3.578226
