27
Energy: -35051.5397388 eV PBE+vdW (tier 2 basis)
N    -1.469787  1.047354  1.430447
C    -0.468596  0.074676  1.787848
C    0.307526  -0.600821  0.647100
O    1.420887  -1.126921  0.776978
H    -2.241845  0.651587  0.895544
H    -1.092855  1.839593  0.913985
H    0.308758  0.605267  2.362514
C    -1.128614  -0.992004  2.707446
C    -0.231657  -2.103169  3.271371
C    0.954831  -1.537612  4.058500
N    1.975047  -2.535291  4.458537
C    2.886481  -3.093808  3.676541
N    3.899043  -3.875884  4.031795
N    2.896570  -2.848992  2.255336
H    -1.955622  -1.463439  2.156503
H    -1.594270  -0.421059  3.522843
H    0.123199  -2.749411  2.455087
H    -0.834182  -2.745592  3.928258
H    0.611929  -1.074716  4.991506
H    1.469150  -0.749818  3.492931
H    2.045014  -2.739003  5.454200
H    3.936216  -4.155137  5.013764
H    2.338076  -3.583470  1.799729
H    2.421130  -1.968764  1.922633
O    -0.325210  -0.571072  -0.520867
H    0.227066  -1.006313  -1.201946
Ca    5.176171  -3.623665  2.260655
