27
Energy: -35053.6122313 eV PBE+vdW (tier 2 basis)
N    1.400838  -0.321592  0.080158
C    0.455063  0.047368  1.214251
C    1.305622  0.737760  2.290007
O    0.712422  1.172815  3.319062
H    1.413898  -1.333241  -0.102249
H    1.172692  0.155868  -0.800742
H    -0.240152  0.803468  0.824856
C    -0.368053  -1.137493  1.754118
C    0.330098  -2.484273  2.047949
C    1.655457  -2.524951  2.820099
N    1.626066  -1.774164  4.078872
C    2.697400  -1.632781  4.914518
N    2.926130  -0.441631  5.468424
N    3.486860  -2.708654  5.099536
H    -1.186254  -1.338271  1.048747
H    -0.863915  -0.746368  2.653833
H    0.510514  -3.030821  1.107583
H    -0.414839  -3.097595  2.574540
H    2.489681  -2.148841  2.199864
H    1.873626  -3.584632  3.010676
H    0.916052  -1.057467  4.186197
H    3.526383  -0.529908  6.293469
H    3.142379  -3.647546  4.933472
H    4.343306  -2.630769  5.635129
O    2.568024  0.814339  2.123563
H    2.349059  -0.017313  0.400443
Ca    2.676557  1.535182  4.374045
