27
Energy: -35052.020278 eV PBE+vdW (tier 2 basis)
N    1.018371  -1.177890  1.280555
C    0.433397  0.056179  1.860868
C    1.396109  0.657528  2.888045
O    2.297731  0.060914  3.468084
H    0.352101  -1.560792  0.603862
H    1.843587  -0.924338  0.730223
H    0.310085  0.837165  1.093890
C    -0.985582  -0.204684  2.441820
C    -1.195578  -1.522619  3.199371
C    -0.435549  -1.651013  4.539160
N    0.105441  -3.002600  4.773155
C    1.211608  -3.507534  4.234150
N    1.681805  -4.737838  4.395923
N    2.055062  -2.711135  3.389461
H    -1.685278  -0.196718  1.594045
H    -1.270475  0.658175  3.059654
H    -0.921024  -2.369413  2.554394
H    -2.272064  -1.638501  3.380543
H    -1.092418  -1.434400  5.388608
H    0.395729  -0.942345  4.612126
H    -0.449350  -3.625775  5.356729
H    1.118490  -5.372066  4.964068
H    1.556249  -2.335322  2.493541
H    2.275703  -1.773195  3.790968
O    1.126027  1.946974  3.081198
H    1.742640  2.313322  3.748781
Ca    3.605274  -4.486971  3.376748
