27
Energy: -35053.2084326 eV PBE+vdW (tier 2 basis)
N    0.085730  0.351238  0.280334
C    0.192109  -0.245356  1.671569
C    1.599595  -0.918023  1.652334
O    2.086215  -1.247691  2.802854
H    -0.813123  0.165767  -0.180064
H    0.260149  1.362529  0.257260
H    0.175843  0.574374  2.399677
C    -0.981789  -1.228165  1.881636
C    -0.975113  -2.071812  3.165620
C    -1.252131  -1.307708  4.473357
N    -1.019705  -2.139709  5.655854
C    0.210398  -2.472753  6.112854
N    1.308855  -1.789999  5.771341
N    0.333403  -3.561213  6.904528
H    -0.991581  -1.925939  1.029241
H    -1.919118  -0.650684  1.828076
H    -0.018363  -2.603886  3.251270
H    -1.743633  -2.848491  3.049364
H    -2.296923  -0.976117  4.516120
H    -0.650461  -0.388960  4.547022
H    -1.829181  -2.572121  6.089529
H    1.014037  -0.860745  5.452781
H    1.101246  -3.590559  7.565386
H    -0.462283  -4.154219  7.112276
O    2.127349  -1.085638  0.554703
H    0.884962  -0.149750  -0.220497
Ca    3.060106  -2.126497  4.421930
