27
Energy: -35051.8859876 eV PBE+vdW (tier 2 basis)
N    -0.521491  0.959875  0.929445
C    -0.338168  0.147712  2.136725
C    1.156456  0.216236  2.508805
O    1.669965  -0.515409  3.365567
H    -1.309154  1.601820  0.998296
H    -0.633521  0.415018  0.075292
H    -0.848876  0.660232  2.968030
C    -0.876602  -1.299141  2.127672
C    -0.291353  -2.301735  1.110672
C    1.203467  -2.627399  1.180485
N    1.618725  -3.123792  2.555475
C    3.057644  -3.277198  2.679612
N    3.441068  -4.529675  2.500461
N    3.770311  -2.207080  2.976996
H    -1.958675  -1.245908  1.945562
H    -0.780458  -1.691739  3.151334
H    -0.477777  -1.960906  0.080085
H    -0.877510  -3.232303  1.199407
H    1.818932  -1.753960  0.921858
H    1.456234  -3.403464  0.440224
H    1.331255  -2.359362  3.202205
H    4.447376  -4.703700  2.527322
H    4.775660  -2.258782  3.122017
H    3.273882  -1.308715  3.145409
O    1.840360  1.102176  1.831821
H    1.137103  1.484201  1.195979
Ca    1.484735  -5.498205  2.728642
