27
Energy: -35052.5535879 eV PBE+vdW (tier 2 basis)
N    0.953842  -1.327137  0.454399
C    0.514753  -0.966565  1.785654
C    1.703127  -1.176672  2.725450
O    2.750438  -1.713759  2.331175
H    -5.102046  2.693752  1.085693
H    0.243065  -1.070728  -0.231467
H    0.262491  0.114826  1.872208
C    -0.696800  -1.794675  2.327059
C    -1.999973  -1.653833  1.528423
C    -2.730750  -0.320468  1.722578
N    -4.037029  -0.371948  1.052747
C    -4.853125  0.670126  0.836877
N    -4.566715  1.874488  1.348468
N    -5.949131  0.513106  0.081500
H    -0.898013  -1.545976  3.383597
H    -0.402708  -2.853587  2.309065
H    -2.668467  -2.465695  1.855925
H    -1.809575  -1.822862  0.457530
H    -2.155279  0.514756  1.294764
H    -2.868904  -0.129343  2.800691
H    -4.406733  -1.294699  0.844281
H    -3.908858  1.980902  2.109653
H    -6.684306  1.210181  0.066204
H    -6.092003  -0.317662  -0.479816
O    1.653979  -0.799717  3.990018
H    0.805891  -0.373025  4.213924
Ca    2.900134  -2.127334  0.157038
