27
Energy: -35052.0113584 eV PBE+vdW (tier 2 basis)
N    1.279627  1.018088  2.189763
C    0.229916  -0.041834  1.919543
C    0.897241  -1.183049  1.112592
O    2.170985  -1.359198  1.361922
H    1.246022  1.684499  1.406938
H    0.971323  1.576875  2.992754
H    -0.010270  -0.487157  2.899738
C    -1.049861  0.536346  1.284150
C    -2.409074  -0.062995  1.694569
C    -2.776278  -1.468519  1.201860
N    -2.263990  -2.532646  2.088790
C    -1.950964  -3.816328  1.735120
N    -1.884735  -4.911123  2.365881
N    -1.452381  -3.946228  0.319856
H    -0.948004  0.511790  0.188830
H    -1.099365  1.600140  1.563120
H    -3.175781  0.617018  1.297389
H    -2.527714  -0.016362  2.789589
H    -2.377465  -1.612850  0.191020
H    -3.872306  -1.548386  1.136752
H    -2.635881  -2.482785  3.035569
H    -2.229543  -4.887006  3.328833
H    -1.081046  -4.905181  0.261767
H    -2.200901  -3.846558  -0.378309
O    0.249071  -1.860917  0.323192
H    -0.696672  -3.234372  0.135038
Ca    3.465296  -0.057189  2.251596
