27
Energy: -35053.4089063 eV PBE+vdW (tier 2 basis)
N    -2.115124  0.473217  1.617684
C    -1.391193  -0.722410  2.137627
C    0.052335  -0.314201  2.436599
O    0.561627  0.689532  1.927206
H    -2.964815  0.156389  1.139582
H    -2.463336  1.014923  2.416812
H    -1.842112  -1.064893  3.084378
C    -1.474766  -1.920813  1.153589
C    -1.188467  -1.703307  -0.344786
C    0.260293  -1.415962  -0.777710
N    0.509974  0.027042  -1.118157
C    -0.208047  0.553561  -2.266676
N    -0.929277  1.600488  -1.974895
N    -0.071339  -0.053524  -3.449623
H    -2.498122  -2.314610  1.241392
H    -0.828074  -2.725373  1.534850
H    -1.865501  -0.945156  -0.770667
H    -1.499967  -2.636334  -0.832964
H    0.521857  -2.060568  -1.629869
H    0.978192  -1.661114  0.015643
H    1.517714  0.136269  -1.282247
H    -1.426768  2.021118  -2.763628
H    0.564975  -0.832235  -3.582222
H    -0.544687  0.289494  -4.280940
O    0.791764  -1.062189  3.228536
H    0.300956  -1.799176  3.642859
Ca    -0.482092  1.857832  0.294626
