27
Energy: -35053.6190908 eV PBE+vdW (tier 2 basis)
N    0.528944  0.064060  0.051043
C    0.244266  0.110719  1.487638
C    1.463020  0.428856  2.356697
O    1.296681  0.761726  3.589797
H    1.271544  -0.613362  -0.141033
H    -3.018358  0.424849  -3.555626
H    -0.466388  0.932543  1.674032
C    -0.401483  -1.199328  2.006260
C    -1.865400  -1.457615  1.601902
C    -2.132522  -2.003794  0.193973
N    -1.963634  -1.001402  -0.859151
C    -2.802623  -0.727419  -1.856365
N    -2.372622  0.032187  -2.882454
N    -4.070625  -1.167222  -1.876108
H    -0.369982  -1.163327  3.103326
H    0.231636  -2.050925  1.705258
H    -2.471158  -0.553965  1.770322
H    -2.253043  -2.214193  2.299252
H    -3.150148  -2.409176  0.161913
H    -1.462506  -2.852867  -0.018409
H    -1.056395  -0.490922  -0.799602
H    -1.384879  0.172010  -3.046828
H    -4.631366  -1.106843  -2.716658
H    -4.506043  -1.576217  -1.060919
O    2.655590  0.363053  1.877755
H    0.880817  0.965748  -0.276482
Ca    3.429748  0.956546  3.822994
