27
Energy: -35051.9282984 eV PBE+vdW (tier 2 basis)
N    -1.246658  0.805658  2.097692
C    -0.018929  -0.035822  2.360399
C    0.724713  -0.045127  1.014111
O    0.182344  0.339333  -0.005223
H    -1.136671  1.763916  2.444627
H    -1.302962  0.853365  1.053598
H    0.597906  0.457667  3.123208
C    -0.402984  -1.460480  2.793335
C    -0.920241  -1.614958  4.234069
C    -2.046886  -0.659641  4.667785
N    -3.091716  -0.509348  3.650491
C    -4.240302  -1.074328  3.810388
N    -4.773980  -1.860464  4.775048
N    -5.285952  -0.839958  2.778815
H    0.492761  -2.085413  2.682554
H    -1.135052  -1.853244  2.070316
H    -0.087870  -1.488034  4.941501
H    -1.258652  -2.655246  4.344187
H    -1.631073  0.345297  4.849768
H    -2.437911  -0.983711  5.645161
H    -2.130352  0.363438  2.534716
H    -4.125067  -2.119474  5.518203
H    -5.305501  0.155457  2.536750
H    -5.018579  -1.319356  1.912117
O    1.955493  -0.529225  1.126253
H    2.385679  -0.535072  0.245274
Ca    -6.847022  -1.959688  4.222362
