27
Energy: -35051.5800507 eV PBE+vdW (tier 2 basis)
N    0.212200  -0.299013  0.169562
C    0.011973  -0.192113  1.646843
C    1.390694  -0.085963  2.299239
O    2.359400  0.349410  1.635766
H    0.147694  -1.289036  -0.098625
H    -0.682515  0.189897  -0.269258
H    -0.417875  0.811391  1.820211
C    -0.932219  -1.242343  2.278447
C    -2.296352  -1.449394  1.589459
C    -3.419510  -0.414781  1.813400
N    -3.072182  1.001523  1.658136
C    -2.404800  1.534809  0.597735
N    -2.092957  0.902588  -0.514247
N    -1.865812  2.793014  0.787193
H    -1.113466  -0.960760  3.330961
H    -0.416046  -2.215820  2.292423
H    -2.700806  -2.397682  1.970644
H    -2.141520  -1.631769  0.517417
H    -3.791323  -0.510418  2.841568
H    -4.263188  -0.687306  1.158754
H    -3.516785  1.637798  2.312608
H    -2.720123  0.111469  -0.673478
H    -1.829194  3.357405  -0.056787
H    -2.139363  3.316496  1.613611
O    1.595968  -0.375734  3.553290
H    0.800546  -0.741404  3.992823
Ca    2.197364  0.735488  -0.480878
