27
Energy: -35049.8503759 eV PBE+vdW (tier 2 basis)
N    -0.632022  0.759147  0.866877
C    -0.039083  -0.149312  1.847125
C    1.443238  0.117592  1.589269
O    2.045263  1.109546  2.085205
H    -0.906557  0.297044  0.001435
H    -1.416420  1.292654  1.233231
H    -0.244069  0.234460  2.856370
C    -0.464528  -1.620870  1.763870
C    0.128746  -2.532345  2.847183
C    -0.546807  -3.923036  2.866456
N    -0.102058  -4.774871  3.946101
C    -0.524821  -4.636097  5.251020
N    -1.393522  -3.766631  5.696157
N    0.066407  -5.463572  6.165212
H    -0.267829  -2.024770  0.750054
H    -1.563018  -1.616594  1.841828
H    -0.007260  -2.064636  3.834676
H    1.214629  -2.667533  2.715682
H    -0.354363  -4.454362  1.924429
H    -1.640289  -3.799915  2.926351
H    0.633385  -5.442536  3.744633
H    -1.833992  -3.229741  4.945880
H    -0.346748  -5.442749  7.091486
H    0.497059  -6.336529  5.885004
O    2.131211  -0.620923  0.756558
H    1.604258  -1.388866  0.447125
Ca    3.178078  2.835651  2.305598
