27
Energy: -35053.310349 eV PBE+vdW (tier 2 basis)
N    0.472948  0.094207  0.212385
C    0.362619  0.227274  1.662481
C    1.815776  0.248840  2.132481
O    2.370577  1.367084  2.446598
H    0.489075  -0.871166  -0.108888
H    -0.220362  0.629946  -0.300942
H    -0.028243  1.231440  1.877282
C    -0.489626  -0.824737  2.401645
C    -1.984286  -0.675204  2.090314
C    -2.902477  -1.613332  2.886560
N    -2.842032  -3.029165  2.493232
C    -3.703531  -3.658307  1.682438
N    -3.708998  -4.999640  1.630583
N    -4.556538  -2.969736  0.912939
H    -0.333233  -0.710339  3.487223
H    -0.121989  -1.828704  2.134100
H    -2.161686  -0.805879  1.010900
H    -2.302018  0.351168  2.332370
H    -3.948585  -1.287406  2.809280
H    -2.656699  -1.573499  3.956724
H    -2.121163  -3.602900  2.917555
H    -3.295404  -5.558355  2.366997
H    -5.349944  -3.424144  0.476661
H    -4.471422  -1.969597  0.789409
O    2.528190  -0.827257  2.125680
H    -4.209482  -5.495465  0.902656
Ca    4.282791  0.400773  2.424963
