27
Energy: -35052.088643 eV PBE+vdW (tier 2 basis)
N    -0.013057  -0.200267  -0.142234
C    0.150063  -0.063405  1.318325
C    1.610886  -0.087135  1.766735
O    1.914581  0.267813  2.963044
H    -1.543270  -0.858530  -0.427242
H    0.141425  0.689901  -0.620455
H    -0.238263  0.918299  1.631187
C    -0.640589  -1.174293  2.056513
C    -2.162119  -0.942286  2.203488
C    -2.944545  -0.407027  0.998619
N    -2.593104  -1.132613  -0.273699
C    -3.362359  -0.851407  -1.562279
N    -3.510468  -1.719841  -2.462791
N    -3.714765  0.461365  -1.677612
H    -0.239302  -1.295348  3.070924
H    -0.438105  -2.124617  1.536788
H    -2.342628  -0.228029  3.019631
H    -2.609639  -1.889713  2.537986
H    -2.711824  0.650675  0.819877
H    -4.022735  -0.500769  1.177199
H    -2.654530  -2.146219  -0.125610
H    -3.092850  -2.638377  -2.310119
H    -4.225357  0.666725  -2.533896
H    -4.050350  0.972403  -0.868722
O    2.536663  -0.470085  0.961806
H    0.694215  -0.843256  -0.511107
Ca    4.009065  -0.084739  2.536005
