27
Energy: -35051.0663718 eV PBE+vdW (tier 2 basis)
N    1.146481  -1.310724  -0.376383
C    0.967665  -1.090276  1.059475
C    1.787789  -2.003808  2.003342
O    1.496266  -2.208645  3.159796
H    2.094652  -1.067673  -0.665146
H    1.029048  -2.299444  -0.607757
H    1.344357  -0.075549  1.279903
C    -0.512785  -1.147307  1.471129
C    -1.369311  0.007666  0.932631
C    -1.670713  -0.111608  -0.567181
N    -2.371163  1.077608  -1.101130
C    -3.671340  1.291932  -1.192565
N    -4.306748  2.356891  -1.657243
N    -4.618517  0.273506  -0.751678
H    -0.552073  -1.133490  2.567587
H    -0.939499  -2.117875  1.167268
H    -0.858714  0.965365  1.122135
H    -2.314627  0.048334  1.501438
H    -2.269026  -1.006395  -0.788402
H    -0.726779  -0.219603  -1.122585
H    -1.765888  1.846905  -1.389065
H    -3.717395  3.112270  -2.012787
H    -4.539283  -0.568327  -1.335748
H    -4.405521  -0.037290  0.203648
O    2.877930  -2.507751  1.387693
H    3.373840  -3.032872  2.048518
Ca    -6.419067  1.864580  -1.285007
