27
Energy: -35052.0351302 eV PBE+vdW (tier 2 basis)
N    0.381848  0.963794  1.344345
C    -0.301730  -0.006998  2.279189
C    0.699332  -0.484300  3.348587
O    1.952627  -0.478233  2.979081
H    -0.134335  0.977955  0.457884
H    0.255914  1.912566  1.717297
H    -1.122777  0.510499  2.795025
C    -0.872297  -1.214087  1.484412
C    -2.395703  -1.152391  1.237641
C    -3.228261  -2.030120  2.196914
N    -2.815929  -1.947457  3.599846
C    -2.951969  -0.830321  4.353248
N    -3.527732  0.287782  4.190573
N    -2.114620  -0.894083  5.597598
H    -0.616000  -2.146623  2.005875
H    -0.341248  -1.271112  0.520682
H    -2.629657  -1.497783  0.221831
H    -2.736292  -0.106993  1.278519
H    -3.127326  -3.085310  1.916623
H    -4.296295  -1.786555  2.100309
H    -2.384151  -2.770875  4.003342
H    -4.113368  0.350896  3.354817
H    -2.298126  -1.719900  6.182755
H    -2.337004  -0.049056  6.141212
O    0.314836  -0.875450  4.450958
H    -1.090532  -0.878230  5.275925
Ca    2.776577  0.415941  1.340728
