27
Energy: -35052.7196569 eV PBE+vdW (tier 2 basis)
N    -0.071980  0.638893  0.386403
C    0.031919  -0.379273  1.478157
C    1.518582  -0.731549  1.562660
O    2.308563  0.223306  1.646202
H    0.173268  0.214211  -0.514522
H    -1.051335  0.924140  0.292474
H    -0.094484  0.186447  2.415994
C    -1.078333  -1.431833  1.534707
C    -2.450867  -0.791009  1.857081
C    -2.591964  -0.071538  3.216324
N    -1.714438  1.102484  3.399631
C    -1.769906  2.303604  2.755526
N    -0.626458  2.975326  2.566380
N    -2.968014  2.709898  2.287364
H    -0.838699  -2.162046  2.326019
H    -1.149153  -1.988322  0.587508
H    -3.205599  -1.589549  1.843871
H    -2.757957  -0.109749  1.046530
H    -2.349546  -0.755882  4.039501
H    -3.646352  0.201594  3.365563
H    -1.003412  1.050835  4.120512
H    -0.827057  3.974615  2.446334
H    -3.041121  3.559330  1.738790
H    -3.830301  2.374439  2.705338
O    1.974362  -1.956149  1.608715
H    1.274463  -2.632967  1.513003
Ca    1.334044  2.291976  1.529959
