30
Energy: -572554.372104 eV PBE+vdW (tier 2 basis)
C    -0.474746  -1.544252  -0.416205
C    -0.808942  -0.541697  0.632273
O    -0.202572  0.612697  0.487692
H    -0.759950  -1.154964  -1.403104
H    -0.965978  -2.505573  -0.233783
H    0.615323  -1.690192  -0.432687
N    -1.640072  -0.853574  1.605095
C    -1.961990  -0.193859  2.876364
C    -2.373415  -1.431787  3.766377
O    -2.834663  -2.397647  3.157595
H    -2.074484  -1.803573  1.629038
H    -1.060495  0.296122  3.277993
C    -3.173310  0.797710  2.769158
C    -3.162344  1.986147  3.774144
C    -2.946322  3.376896  3.215912
O    -2.004011  3.702580  2.384333
N    -3.706000  4.365024  3.634173
H    -4.095638  0.222573  2.924480
H    -3.276381  1.154849  1.730737
H    -2.360834  1.856664  4.520605
H    -4.095363  1.988510  4.349243
H    -4.464168  4.217957  4.295416
H    -3.534525  5.318952  3.313609
N    -2.256496  -1.373236  5.100783
C    -1.610825  -0.383990  5.956617
H    -2.613987  -2.210371  5.561578
H    -1.085914  -0.905939  6.764443
H    -2.339798  0.299680  6.413578
H    -0.855369  0.187964  5.405535
Hg    -0.948510  2.236158  1.433949
