30
Energy: -572554.157233 eV PBE+vdW (tier 2 basis)
C    -0.841531  -0.999528  -0.050590
C    -0.379433  -0.893107  1.357627
O    0.898446  -1.168764  1.546709
H    -1.908024  -0.777455  -0.157923
H    -0.660813  -2.033714  -0.387580
H    -0.239444  -0.352906  -0.702324
N    -1.226486  -0.563194  2.313153
C    -1.307825  -0.858355  3.758326
C    -2.851116  -0.665519  4.002513
O    -3.477658  -0.032174  3.143296
H    -2.202023  -0.244463  2.054528
H    -1.022478  -1.909439  3.906924
C    -0.474991  -0.005207  4.762112
C    -0.323642  1.513710  4.470656
C    1.057819  2.040045  4.803299
O    2.138167  1.565999  4.257715
N    1.214219  3.020027  5.663064
H    0.510579  -0.482666  4.895190
H    -0.937814  -0.121278  5.750328
H    -1.088927  2.089914  5.003593
H    -0.488935  1.734964  3.400336
H    2.144758  3.391343  5.860419
H    0.423851  3.446170  6.140084
N    -3.405288  -1.164853  5.113014
C    -2.832882  -2.035309  6.138687
H    -4.400680  -0.956914  5.191148
H    -2.577613  -1.475164  7.048869
H    -1.943216  -2.555983  5.769136
H    -3.571322  -2.799932  6.403635
Hg    1.795954  0.092174  2.859443
