30
Energy: -572553.862123 eV PBE+vdW (tier 2 basis)
C    -0.118102  -0.885197  -1.310750
C    0.081033  -0.724566  0.150080
O    1.296379  -0.918385  0.601490
H    -1.105648  -0.544855  -1.635667
H    0.042091  -1.934202  -1.599642
H    0.657973  -0.303749  -1.831547
N    -0.869803  -0.392682  1.010672
C    -2.323508  -0.510737  1.078854
C    -2.644582  0.444435  2.267765
O    -1.736159  0.599115  3.109588
H    -0.620060  0.036891  1.946502
H    -2.808812  -0.197047  0.147145
C    -2.777365  -1.960275  1.452033
C    -1.843075  -2.839863  2.328329
C    -1.441041  -2.437292  3.740337
O    -0.217190  -2.215688  4.107490
N    -2.346592  -2.411847  4.695469
H    -2.916976  -2.531054  0.523878
H    -3.773227  -1.894100  1.911846
H    -0.918875  -3.073418  1.779444
H    -2.347278  -3.815181  2.427738
H    -3.305608  -2.706332  4.534204
H    -2.077674  -2.169958  5.649267
N    -3.855331  0.990877  2.364597
C    -4.938881  0.970727  1.375689
H    -3.973715  1.597980  3.175122
H    -5.154004  -0.046900  1.029485
H    -4.710191  1.614942  0.516543
H    -5.843671  1.351847  1.857440
Hg    1.077871  -1.574770  2.591244
