30
Energy: -572553.710217 eV PBE+vdW (tier 2 basis)
C    -0.967621  0.856177  0.009242
C    -0.640087  0.514246  1.434160
O    0.580806  0.211688  1.653752
H    -0.529442  1.837789  -0.222870
H    -2.046291  0.884494  -0.180887
H    -0.491931  0.126074  -0.657025
N    -1.629937  0.563387  2.331893
C    -1.744904  0.115503  3.744871
C    -1.109600  1.102388  4.749756
O    0.131669  1.130003  5.051300
H    -2.545425  0.746701  1.923809
H    -2.828054  0.167324  3.916136
C    -1.370545  -1.355534  4.003672
C    -2.022260  -2.370445  3.054152
C    -3.548682  -2.217447  2.925505
O    -4.040138  -1.093593  2.727451
N    -4.284238  -3.331178  2.995520
H    -1.640019  -1.576083  5.047037
H    -0.273946  -1.524887  3.946981
H    -1.762191  -3.383153  3.387264
H    -1.623622  -2.265252  2.033624
H    -3.873382  -4.249073  3.121862
H    -5.287869  -3.275104  2.838730
N    -1.929205  1.937243  5.363078
C    -1.516856  2.935665  6.355916
H    -2.925719  1.843567  5.176941
H    -1.472606  2.481088  7.354292
H    -2.253312  3.744300  6.357726
H    -0.529069  3.327297  6.094957
Hg    1.552859  0.133907  3.648475
