30
Energy: -572554.163722 eV PBE+vdW (tier 2 basis)
C    -0.830696  0.138082  0.087830
C    -1.063674  0.072014  1.564539
O    -0.811773  1.101140  2.254980
H    -1.523424  0.872489  -0.346890
H    -0.973548  -0.830267  -0.404845
H    0.186543  0.503811  -0.099939
N    -1.533356  -1.091199  2.089691
C    -1.900624  -1.158505  3.490216
C    -0.674490  -1.403140  4.405954
O    -0.223318  -0.456949  5.126599
H    -1.718577  -1.862820  1.453593
H    -2.208112  -0.132540  3.694780
C    -3.167815  -1.913067  3.908614
C    -3.633544  -1.374182  5.292083
C    -4.137457  0.069174  5.327529
O    -3.431453  1.119692  5.163386
N    -5.430657  0.243683  5.573844
H    -3.020855  -2.998982  3.985835
H    -3.946453  -1.746252  3.151009
H    -2.815456  -1.444736  6.026185
H    -4.428224  -2.030357  5.666033
H    -6.060367  -0.534556  5.741103
H    -5.809337  1.186644  5.645198
N    -0.109069  -2.597359  4.424506
C    1.076925  -2.944877  5.218068
H    -0.538306  -3.339915  3.877603
H    0.777277  -3.356516  6.190276
H    1.680936  -2.047093  5.376577
H    1.655624  -3.694525  4.670014
Hg    -1.234416  1.508286  4.542862
