30
Energy: -572553.791215 eV PBE+vdW (tier 2 basis)
C    0.804177  1.318663  1.238507
C    -0.105759  0.160753  1.513812
O    0.440230  -0.877095  2.019188
H    0.305315  2.136201  0.706557
H    1.654236  0.963201  0.639239
H    1.217996  1.684411  2.188311
N    -1.405500  0.284462  1.201478
C    -2.475855  -0.719039  1.005744
C    -3.242150  -1.114700  2.279093
O    -2.729553  -1.207979  3.453913
H    -1.656812  1.216542  0.881222
H    -3.214544  -0.174117  0.404452
C    -2.053567  -1.970080  0.172017
C    -2.499351  -1.912770  -1.294389
C    -4.015604  -1.921760  -1.503205
O    -4.801860  -1.550594  -0.604214
N    -4.461489  -2.303416  -2.700876
H    -2.463632  -2.876503  0.641673
H    -0.962811  -2.081915  0.194469
H    -2.051683  -2.757517  -1.835828
H    -2.114233  -1.001567  -1.781612
H    -3.837773  -2.596812  -3.444881
H    -5.458090  -2.266531  -2.900482
N    -4.525199  -1.358213  2.102719
C    -5.448547  -1.844851  3.118442
H    -4.862076  -1.254441  1.122585
H    -6.029472  -1.002990  3.523389
H    -4.901770  -2.324671  3.934807
H    -6.145083  -2.545420  2.644001
Hg    -0.686256  -2.044731  3.551216
