30
Energy: -572554.238228 eV PBE+vdW (tier 2 basis)
C    0.571982  -1.058772  0.045978
C    0.270539  -1.127340  1.502936
O    1.199850  -1.679710  2.221916
H    0.709983  -2.081115  -0.336171
H    1.521314  -0.528126  -0.107582
H    -0.224072  -0.566283  -0.522942
N    -0.886630  -0.653079  1.965625
C    -1.489315  -0.833411  3.301312
C    -3.045035  -0.955831  3.296772
O    -3.518111  -1.710087  4.138767
H    -1.507294  -0.307672  1.235413
H    -1.221618  -1.847590  3.643514
C    -1.072187  0.251520  4.348132
C    -1.354099  -0.166209  5.812725
C    -0.248942  -0.756635  6.664275
O    0.808056  -1.393235  6.250130
N    -0.363064  -0.666597  7.971809
H    -1.653391  1.161353  4.145132
H    -0.028336  0.581679  4.203217
H    -2.176332  -0.909175  5.818884
H    -1.745404  0.700868  6.360231
H    -1.143874  -0.184490  8.410072
H    0.326448  -1.106182  8.581627
N    -3.752555  -0.220516  2.413192
C    -5.221039  -0.273870  2.377817
H    -3.317199  0.551231  1.916961
H    -5.559189  -0.014195  1.370272
H    -5.659590  0.422203  3.104291
H    -5.540442  -1.290707  2.623324
Hg    1.136083  -1.659218  4.259093
