30
Energy: -572554.321615 eV PBE+vdW (tier 2 basis)
C    0.241265  -0.795072  0.086159
C    0.223281  -0.412345  1.525874
O    1.409856  -0.356825  2.077427
H    -0.767332  -0.845827  -0.336909
H    0.724860  -1.778638  -0.010430
H    0.855041  -0.081539  -0.479883
N    -0.928637  -0.164329  2.124758
C    -1.360857  -0.159872  3.535796
C    -2.667980  -1.056451  3.449699
O    -3.248735  -1.066755  2.365155
H    -1.795672  -0.357908  1.570075
H    -0.621182  -0.658726  4.181572
C    -1.834805  1.219770  4.071370
C    -0.859996  2.418482  4.273027
C    0.043210  2.381981  5.485913
O    1.172255  1.738522  5.524196
N    -0.293052  3.032362  6.578326
H    -2.366221  1.037067  5.015788
H    -2.600443  1.577066  3.368132
H    -1.485568  3.319243  4.342916
H    -0.232683  2.582463  3.380222
H    -1.132609  3.604013  6.625713
H    0.319617  3.022200  7.394826
N    -3.079454  -1.696171  4.551603
C    -2.390944  -1.832511  5.833100
H    -3.946176  -2.216699  4.422695
H    -3.008873  -2.457626  6.483846
H    -2.261959  -0.865896  6.339768
H    -1.418496  -2.332376  5.724744
Hg    1.546011  0.616569  3.849068
