30
Energy: -572554.562297 eV PBE+vdW (tier 2 basis)
C    -3.230665  0.747530  0.776488
C    -2.201475  0.342453  1.784145
O    -1.005050  0.246894  1.334306
H    -2.915588  1.697103  0.320479
H    -4.232534  0.869729  1.201508
H    -3.257876  0.004004  -0.031500
N    -2.613603  0.137702  3.047364
C    -1.944065  -0.025094  4.372640
C    -0.670557  0.829556  4.519380
O    0.456450  0.371732  4.206551
H    -3.621820  0.242508  3.138152
H    -2.679932  0.418391  5.056635
C    -1.822319  -1.481059  4.916600
C    -1.140659  -2.657734  4.161867
C    0.357662  -2.882158  4.304052
O    1.218542  -2.516764  3.419894
N    0.812600  -3.544382  5.350938
H    -2.858661  -1.810153  5.072425
H    -1.392815  -1.391271  5.925387
H    -1.380609  -2.640985  3.086232
H    -1.626709  -3.572773  4.531779
H    0.192834  -3.965161  6.036798
H    1.813195  -3.715262  5.448567
N    -0.788560  2.048632  5.044948
C    -1.985744  2.743540  5.529331
H    0.102588  2.536466  5.144612
H    -1.704526  3.775529  5.757727
H    -2.372345  2.288066  6.450747
H    -2.768683  2.775323  4.762294
Hg    0.450923  -0.958362  2.244656
