30
Energy: -572554.259478 eV PBE+vdW (tier 2 basis)
C    0.272800  -1.187991  1.664803
C    -0.379839  0.100476  1.272800
O    0.210895  0.995774  0.650308
H    -0.388418  -1.883635  2.192088
H    1.136490  -0.957704  2.304072
H    0.671720  -1.671518  0.763587
N    -1.700948  0.269698  1.625373
C    -2.450940  1.515750  1.514901
C    -2.668450  2.079346  0.089578
O    -3.810477  2.687982  -0.191105
H    -2.193550  -0.524770  2.021021
H    -3.467026  1.222792  1.825716
C    -1.916905  2.642881  2.482366
C    -2.538946  2.670245  3.906245
C    -3.575056  3.732227  4.253827
O    -4.532394  4.160397  3.486590
N    -3.558209  4.240053  5.467504
H    -1.969794  3.637874  2.006958
H    -0.836805  2.479300  2.581368
H    -1.731815  2.759701  4.643697
H    -3.024026  1.704015  4.132298
H    -2.854773  3.975862  6.152532
H    -4.276183  4.905377  5.756842
N    -1.751193  1.970332  -0.820005
C    -1.829137  2.454873  -2.197897
H    -0.850057  1.551698  -0.445355
H    -1.967342  1.598760  -2.871428
H    -0.879582  2.942963  -2.443571
H    -2.663047  3.151030  -2.316825
Hg    -4.524247  3.561634  1.517965
