30
Energy: -572554.394452 eV PBE+vdW (tier 2 basis)
C    1.146999  -0.371990  1.007096
C    0.162598  -0.826078  2.037876
O    0.378883  -1.989161  2.569852
H    0.921888  -0.876600  0.055236
H    2.156357  -0.686379  1.297752
H    1.124770  0.712214  0.855773
N    -0.908826  -0.167660  2.469444
C    -1.648852  0.878747  1.806218
C    -1.308667  2.213788  2.468404
O    -0.634041  2.161094  3.587021
H    -0.401572  1.200225  3.718042
H    -1.421003  0.959159  0.730397
C    -3.170121  0.517832  1.936012
C    -3.680601  0.303938  3.396259
C    -4.299354  -1.056582  3.687050
O    -3.636275  -2.136271  3.886016
N    -5.615898  -1.144094  3.772031
H    -3.298231  -0.393737  1.337816
H    -3.783286  1.285700  1.448909
H    -4.419709  1.075285  3.642967
H    -2.868206  0.424904  4.126759
H    -6.053463  -2.040312  3.984006
H    -6.219003  -0.333582  3.673927
N    -1.637670  3.396453  2.023437
C    -2.355169  3.739086  0.791248
H    -1.331902  4.182419  2.604438
H    -3.378723  4.054865  1.028390
H    -2.377968  2.889360  0.104053
H    -1.831398  4.570755  0.307318
Hg    -1.535982  -2.227288  3.539587
