30
Energy: -572554.059807 eV PBE+vdW (tier 2 basis)
C    -0.189169  3.279689  1.718459
C    -0.216215  1.956573  2.416879
O    0.820235  1.587565  3.039458
H    0.685324  3.318643  1.056593
H    -0.061564  4.073238  2.467984
H    -1.099980  3.470398  1.139751
N    -1.354759  1.215266  2.343022
C    -1.464025  -0.014892  3.102342
C    -0.785805  -1.212771  2.395414
O    0.277224  -1.704240  2.902570
H    -2.142515  1.600970  1.829320
H    -0.812792  0.197219  3.949867
C    -2.764807  -0.350226  3.849594
C    -2.439981  -1.302152  5.037719
C    -1.634437  -0.704475  6.189796
O    -0.403642  -0.366251  6.153431
N    -2.270813  -0.536225  7.342701
H    -3.517915  -0.833618  3.215654
H    -3.205072  0.586157  4.220740
H    -1.886806  -2.185655  4.682789
H    -3.387391  -1.683111  5.437017
H    -3.243272  -0.798738  7.467690
H    -1.767370  -0.174165  8.150913
N    -1.271564  -1.749548  1.288720
C    -2.484166  -1.419467  0.540205
H    -0.708300  -2.517342  0.915408
H    -3.150744  -2.290222  0.512941
H    -2.211479  -1.150273  -0.487681
H    -3.016859  -0.582347  0.995956
Hg    1.151425  -0.281045  4.457324
