30
Energy: -572554.468888 eV PBE+vdW (tier 2 basis)
C    0.024916  1.448900  0.901481
C    0.251621  0.155328  1.617920
O    1.485407  -0.169160  1.849194
H    0.175347  1.286428  -0.176849
H    0.775387  2.182986  1.216796
H    -0.980882  1.848456  1.068128
N    -0.675845  -0.698132  2.043201
C    -2.028800  -0.860922  1.570825
C    -2.986395  -0.266616  2.609584
O    -2.470305  0.110633  3.745792
H    -1.486240  -0.026521  3.649172
H    -2.220556  -0.354693  0.609202
C    -2.262074  -2.393557  1.345448
C    -1.994538  -3.295131  2.592082
C    -0.947594  -4.384674  2.406280
O    0.320448  -4.193172  2.425820
N    -1.357923  -5.630356  2.238669
H    -1.601375  -2.666928  0.512274
H    -3.283877  -2.568965  0.984278
H    -2.930405  -3.770792  2.908327
H    -1.656762  -2.698194  3.451182
H    -0.675840  -6.380137  2.128373
H    -2.341004  -5.882555  2.255412
N    -4.268379  -0.128636  2.411073
C    -5.241748  0.442936  3.356363
H    -4.627827  -0.415471  1.501337
H    -5.723194  1.308661  2.886680
H    -4.730487  0.751186  4.270501
H    -6.001813  -0.312235  3.588356
Hg    1.142285  -2.226917  2.413346
