30
Energy: -572553.727169 eV PBE+vdW (tier 2 basis)
C    0.250261  1.115167  0.210387
C    -0.110728  0.122148  1.262069
O    0.359600  -1.075364  1.286298
H    -0.341771  2.034067  0.271532
H    0.114654  0.656629  -0.778286
H    1.313961  1.386387  0.303925
N    -0.978422  0.451622  2.212886
C    -1.469736  -0.445604  3.256089
C    -2.915812  0.069972  3.529203
O    -3.145930  1.260745  3.297748
H    -1.520590  1.328055  2.161685
H    -1.468056  -1.474231  2.870900
C    -0.672842  -0.360994  4.585928
C    0.797409  -0.848054  4.553809
C    1.875157  0.160262  4.203873
O    2.758382  -0.009282  3.298122
N    1.965253  1.270074  4.929365
H    -1.207366  -0.993241  5.307028
H    -0.742263  0.664538  4.977590
H    0.904554  -1.724510  3.905383
H    1.053078  -1.191349  5.569737
H    1.391006  1.423403  5.752696
H    2.728366  1.923108  4.761373
N    -3.807951  -0.796500  4.034326
C    -5.191313  -0.431016  4.326729
H    -3.554792  -1.779759  4.094607
H    -5.530240  -0.995909  5.202188
H    -5.845518  -0.671233  3.475552
H    -5.242917  0.645345  4.517829
Hg    2.571276  -1.329392  1.458918
