36
Energy: -246329.751384 eV PBE+vdW (tier 2 basis)
C    -0.577888  0.859683  0.376956
C    -0.785202  0.347647  1.771181
O    0.056519  -0.408850  2.316532
H    -1.379587  1.515886  0.022516
H    -0.487637  0.005356  -0.306827
H    0.374810  1.404211  0.335795
N    -1.908568  0.738418  2.411008
C    -2.334757  0.369226  3.772060
C    -1.155130  0.443883  4.765083
O    -0.574911  -0.586430  5.200470
H    -2.545372  1.332588  1.888368
H    -3.012316  1.180606  4.071778
C    -3.165016  -0.938113  3.865405
C    -2.825978  -2.094749  2.894500
C    -2.650754  -3.464976  3.552772
N    -1.432735  -3.474825  4.376519
C    -0.683455  -4.623415  4.677217
N    -1.233842  -5.829769  4.440409
N    0.538845  -4.374265  5.083674
H    -4.212380  -0.652590  3.707437
H    -3.120124  -1.266676  4.914004
H    -1.914766  -1.879979  2.322310
H    -3.628533  -2.184902  2.151220
H    -2.534461  -4.221937  2.766662
H    -3.543414  -3.731178  4.143654
H    -1.479600  -2.838963  5.172978
H    -0.682509  -6.673247  4.551453
H    -2.237028  -5.951641  4.365682
H    1.026852  -5.195116  5.445650
N    -0.792232  1.655363  5.193958
C    -1.370282  2.958688  4.855727
H    -0.053472  1.646975  5.894923
H    -2.410031  3.038590  5.199694
H    -0.787448  3.729477  5.367338
H    -1.317194  3.151955  3.778136
Ba    1.135535  -2.033448  3.981959
