36
Energy: -246329.905574 eV PBE+vdW (tier 2 basis)
C    -0.830019  -0.032087  -0.125569
C    -1.279190  0.334075  1.254368
O    -0.983818  1.445643  1.764989
H    -1.165761  -1.023538  -0.446983
H    0.266190  0.008319  -0.171159
H    -1.206745  0.720561  -0.831172
N    -2.023957  -0.564497  1.935870
C    -2.594104  -0.299168  3.260074
C    -1.516604  -0.555386  4.342075
O    -0.752809  0.390327  4.669103
H    -2.227246  -1.453497  1.486670
H    -2.758909  0.782701  3.291926
C    -3.948499  -1.000174  3.451065
C    -4.685342  -0.603959  4.746845
C    -5.501899  0.705703  4.692556
N    -4.782542  1.884280  4.198282
C    -3.728224  2.503331  4.788126
N    -3.412134  2.146011  6.070554
N    -2.928212  3.361436  4.168632
H    -3.822840  -2.095337  3.426236
H    -4.571547  -0.765597  2.573954
H    -3.972986  -0.577051  5.585209
H    -5.401189  -1.398081  5.000332
H    -5.932397  0.913791  5.684562
H    -6.362320  0.579392  4.023952
H    -4.963562  2.152952  3.238136
H    -2.936725  2.866054  6.604008
H    -4.097724  1.632079  6.613279
H    -3.350465  3.681711  3.292002
N    -1.410550  -1.776579  4.857535
C    -0.403113  -2.191180  5.833074
H    -2.070498  -2.481926  4.542528
H    -0.888489  -2.728944  6.655015
H    0.100265  -1.302969  6.221697
H    0.335189  -2.851163  5.360224
Ba    -0.378150  2.762369  3.827672
