36
Energy: -246329.829011 eV PBE+vdW (tier 2 basis)
C    1.691918  0.946835  1.304021
C    0.835391  1.157758  2.518666
O    0.964505  2.190705  3.227061
H    1.536890  1.791328  0.619190
H    1.482804  0.014381  0.769191
H    2.748189  0.958384  1.601979
N    -0.047363  0.186160  2.815097
C    -1.158738  0.167014  3.774108
C    -0.940005  0.939297  5.084509
O    0.148950  0.953819  5.724755
H    -0.072453  -0.590020  2.159818
H    -2.018444  0.644061  3.273398
C    -1.581818  -1.305932  4.044483
C    -0.741648  -2.217541  4.958274
C    0.701066  -2.548899  4.553043
N    1.588900  -1.445163  4.903696
C    2.843020  -1.211450  4.465000
N    3.477921  -2.215508  3.807702
N    3.373341  -0.000669  4.658289
H    -1.701260  -1.781094  3.056592
H    -2.597433  -1.268055  4.462557
H    -1.289133  -3.168435  5.012566
H    -0.739441  -1.834767  5.991365
H    0.766315  -2.765365  3.473038
H    1.003041  -3.465667  5.084474
H    1.155452  -0.676935  5.409997
H    4.440792  -2.090688  3.520772
H    3.179734  -3.177204  3.923909
H    4.371759  -0.016683  4.436628
N    -2.036237  1.525043  5.561911
C    -2.129547  2.181345  6.863787
H    -2.872364  1.516825  4.984059
H    -3.136092  2.029983  7.266379
H    -1.948455  3.260637  6.770723
H    -1.397688  1.741325  7.546981
Ba    2.322287  2.280956  5.329899
