36
Energy: -246329.114303 eV PBE+vdW (tier 2 basis)
C    1.000217  -0.569679  -0.042179
C    0.647399  -0.148819  1.351576
O    1.552432  0.337193  2.125830
H    1.418683  0.284389  -0.591385
H    0.140084  -0.956815  -0.597320
H    1.771968  -1.350230  -0.001026
N    -0.599011  -0.294125  1.751513
C    -1.174447  0.021602  3.054110
C    -2.585993  -0.637244  2.972969
O    -3.032010  -0.916559  1.857922
H    -1.339091  -0.670352  1.128382
H    -0.564746  -0.447757  3.843034
C    -1.243383  1.548362  3.276719
C    -1.475029  1.981302  4.731864
C    -0.803827  3.323517  5.047120
N    0.651949  3.177949  4.956349
C    1.555572  4.074114  4.482866
N    1.156508  5.350842  4.311378
N    2.774838  3.625305  4.168515
H    -2.016392  1.971290  2.619855
H    -0.282403  1.960161  2.937356
H    -1.074134  1.227553  5.432699
H    -2.545820  2.063349  4.958487
H    -1.099549  3.675162  6.047028
H    -1.119939  4.079838  4.315389
H    1.056926  2.393161  5.454515
H    0.355546  5.728209  4.804218
H    1.758020  6.017614  3.843815
H    3.438996  4.404323  4.138247
N    -3.243040  -0.817547  4.131325
C    -4.586148  -1.393267  4.200548
H    -2.753851  -0.650127  5.003254
H    -4.544887  -2.450154  4.493861
H    -5.046907  -1.317352  3.211995
H    -5.187954  -0.838684  4.928699
Ba    3.485537  1.434144  3.017453
