36
Energy: -246328.457747 eV PBE+vdW (tier 2 basis)
C    -0.993599  -0.591049  -0.228452
C    -0.729780  -0.046452  1.138742
O    0.331359  0.609681  1.377573
H    -1.925145  -1.162355  -0.295414
H    -0.155669  -1.228921  -0.537990
H    -1.036980  0.247350  -0.937721
N    -1.641451  -0.257441  2.095272
C    -1.631418  0.333371  3.441446
C    -0.631287  -0.417748  4.356027
O    0.580095  0.002345  4.342799
H    -2.483123  -0.769713  1.839630
H    -1.144942  1.313320  3.333402
C    -3.057630  0.582479  3.987105
C    -4.218545  -0.259396  3.415933
C    -5.354331  -0.500608  4.441681
N    -5.671696  0.633888  5.285128
C    -5.201950  0.725825  6.580694
N    -5.879609  1.636264  7.361287
N    -4.154569  0.035946  6.930973
H    -3.284098  1.638833  3.799976
H    -3.037938  0.481689  5.084211
H    -3.899040  -1.265705  3.090511
H    -4.626548  0.236591  2.522707
H    -5.076911  -1.327871  5.107083
H    -6.258560  -0.807863  3.899499
H    -6.453445  1.221131  5.025239
H    -6.874457  1.767032  7.210608
H    -5.600462  1.703584  8.332404
H    -3.976577  0.122154  7.932870
N    -0.941338  -1.437587  5.134611
C    -2.216407  -2.124568  5.367964
H    -0.149682  -1.768418  5.686334
H    -2.907535  -1.483411  5.948218
H    -1.996335  -3.031330  5.938009
H    -2.671366  -2.423691  4.418069
Ba    2.161008  1.101248  2.886471
