36
Energy: -246329.894587 eV PBE+vdW (tier 2 basis)
C    0.580326  0.926409  -0.142907
C    -0.023901  0.572660  1.184530
O    0.585975  -0.177608  1.985319
H    -0.061139  1.554637  -0.769691
H    0.815580  0.001105  -0.684872
H    1.532258  1.447228  0.026402
N    -1.237010  1.095142  1.463631
C    -2.086136  0.903259  2.657846
C    -1.425532  1.505980  3.920777
O    -0.537313  0.878409  4.551929
H    -1.625413  1.699559  0.746836
H    -2.988808  1.489060  2.435958
C    -2.518784  -0.545276  2.941295
C    -3.118817  -1.329979  1.755014
C    -2.383759  -2.649264  1.454533
N    -2.272574  -3.539058  2.610695
C    -1.221833  -3.586796  3.470450
N    -1.441680  -4.154735  4.691626
N    -0.026547  -3.063446  3.231719
H    -3.241833  -0.489769  3.766782
H    -1.662274  -1.094268  3.344291
H    -3.105419  -0.733911  0.830522
H    -4.176993  -1.544951  1.953847
H    -1.377484  -2.444818  1.065451
H    -2.907350  -3.195694  0.660136
H    -3.075641  -4.126129  2.812442
H    -0.655106  -4.627935  5.121778
H    -2.353146  -4.534535  4.921468
H    0.084572  -2.910838  2.225287
N    -1.863829  2.701564  4.309097
C    -1.374014  3.425799  5.481132
H    -2.581331  3.152205  3.748976
H    -2.206506  3.971325  5.936555
H    -0.590691  4.139939  5.195440
H    -0.967623  2.711193  6.201751
Ba    1.162205  -0.998199  4.281440
