36
Energy: -246329.608303 eV PBE+vdW (tier 2 basis)
C    -0.110530  -1.574521  -0.196567
C    0.617162  -0.786068  0.847760
O    1.847011  -0.951005  1.050601
H    -1.163373  -1.746510  0.052505
H    0.399553  -2.535609  -0.320640
H    -0.062736  -1.054475  -1.166026
N    -0.055823  0.133766  1.594276
C    -1.074236  1.016405  1.052605
C    -0.371062  2.084320  0.156937
O    0.884659  2.104769  0.027374
H    0.511299  0.543337  2.336824
H    -1.697308  0.426055  0.363955
C    -2.024785  1.561048  2.149218
C    -1.438044  2.080839  3.472734
C    -0.555370  3.337504  3.426337
N    0.814952  3.099782  2.972817
C    1.843096  2.562667  3.685401
N    1.694730  2.458505  5.026031
N    2.908669  2.125811  3.019676
H    -2.706046  0.736123  2.398146
H    -2.662071  2.341349  1.706224
H    -0.903921  1.277131  4.003724
H    -2.301700  2.310690  4.113649
H    -0.546048  3.815800  4.416602
H    -0.982914  4.093808  2.754499
H    1.049346  3.349341  2.021066
H    1.017235  3.020094  5.527635
H    2.433703  2.048597  5.583405
H    3.676823  1.945049  3.671686
N    -1.149062  2.944889  -0.491251
C    -0.650397  3.962623  -1.419702
H    -2.155342  2.866645  -0.376602
H    -0.122545  3.492535  -2.258055
H    0.032418  4.650797  -0.907534
H    -1.503041  4.527695  -1.804792
Ba    3.229213  1.145461  0.623080
