36
Energy: -246327.961252 eV PBE+vdW (tier 2 basis)
C    -0.167501  -1.296268  0.218399
C    -0.235152  -0.748698  1.607631
O    0.797335  -0.725775  2.343536
H    -0.984830  -0.949559  -0.423615
H    -0.234920  -2.395060  0.287465
H    0.795229  -1.049593  -0.240543
N    -1.432742  -0.328967  2.045912
C    -1.877787  -0.043715  3.428516
C    -1.308655  1.284862  3.944262
O    -0.081377  1.385079  4.260716
H    -2.186059  -0.414125  1.369084
H    -2.964559  0.068724  3.338145
C    -1.623606  -1.183528  4.441182
C    -2.508175  -2.426180  4.264596
C    -2.318985  -3.193717  2.953865
N    -2.988709  -4.485867  3.013635
C    -2.931761  -5.297015  1.854716
N    -1.619203  -5.593636  1.464542
N    -4.033086  -5.623357  1.293750
H    -1.801176  -0.766814  5.444359
H    -0.563351  -1.480814  4.409669
H    -3.566008  -2.140021  4.383623
H    -2.288149  -3.112014  5.095841
H    -1.246865  -3.364203  2.770053
H    -2.697207  -2.596463  2.096470
H    -3.978092  -4.393975  3.250191
H    -1.567305  -6.263292  0.701805
H    -1.014947  -5.871045  2.236243
H    -3.915642  -6.323115  0.555217
N    -2.117409  2.323299  4.103400
C    -3.553289  2.432262  3.812322
H    -1.667247  3.148833  4.499065
H    -3.768335  2.173788  2.769274
H    -3.846633  3.474025  3.968094
H    -4.145846  1.805159  4.489701
Ba    2.104619  0.343632  4.061122
