36
Energy: -246329.91304 eV PBE+vdW (tier 2 basis)
C    -0.993538  2.883035  1.937190
C    -1.020663  1.427807  2.295453
O    -0.343153  0.591823  1.647653
H    -1.345822  2.997895  0.903188
H    0.044659  3.238589  1.963495
H    -1.604556  3.511905  2.593049
N    -1.807902  1.064038  3.335495
C    -2.059887  -0.309119  3.816620
C    -0.781720  -0.856162  4.486351
O    0.129043  -1.402123  3.808703
H    -2.327802  1.808802  3.788470
H    -2.822373  -0.203431  4.596792
C    -2.639548  -1.194643  2.691284
C    -2.576915  -2.713468  2.888471
C    -2.815284  -3.437657  1.546904
N    -2.241815  -4.767047  1.480569
C    -1.001854  -5.041720  1.001081
N    -0.733179  -6.352892  0.779853
N    -0.116827  -4.071539  0.778231
H    -2.133154  -0.932874  1.751360
H    -3.679293  -0.871553  2.538927
H    -3.310095  -3.047541  3.635916
H    -1.593914  -3.019415  3.270803
H    -2.377936  -2.854563  0.721610
H    -3.888602  -3.516809  1.330940
H    -2.821761  -5.549355  1.759973
H    0.200213  -6.655606  0.536654
H    -1.466810  -7.047943  0.716669
H    0.648139  -4.483312  0.232567
N    -0.652514  -0.730141  5.806929
C    -1.569381  -0.109274  6.767126
H    0.224132  -1.097171  6.175045
H    -1.712387  0.957592  6.555083
H    -2.538845  -0.622187  6.788309
H    -1.123442  -0.196399  7.761708
Ba    0.798785  -1.666537  1.403527
