36
Energy: -246328.118206 eV PBE+vdW (tier 2 basis)
C    -0.047058  -0.408739  -0.466016
C    0.143352  0.095217  0.928970
O    1.313698  0.301671  1.381102
H    -0.763875  -1.236897  -0.527546
H    0.916487  -0.713207  -0.883119
H    -0.449937  0.401960  -1.090977
N    -0.914561  0.345805  1.734027
C    -2.103202  -0.515605  1.833836
C    -1.612983  -1.950877  2.191055
O    -0.381847  -2.146975  2.509630
H    -0.648366  0.816785  2.597117
H    -2.629070  -0.149310  2.729641
C    -3.075592  -0.433115  0.627604
C    -4.536878  -0.084181  0.948577
C    -5.296653  -0.962838  1.943961
N    -5.187274  -2.437098  1.742043
C    -5.577878  -3.015088  0.484318
N    -6.649550  -3.868777  0.583891
N    -4.833778  -2.777360  -0.534004
H    -3.070936  -1.369855  0.052346
H    -2.705676  0.355928  -0.037749
H    -5.066270  -0.087623  -0.012300
H    -4.605789  0.945933  1.332138
H    -6.351238  -0.644419  1.938675
H    -4.932148  -0.788954  2.969167
H    -5.677534  -2.905211  2.505415
H    -7.382382  -3.686093  1.261237
H    -6.965916  -4.333000  -0.260791
H    -5.209844  -3.186208  -1.393210
N    -2.489666  -2.921609  2.175642
C    -2.166341  -4.303862  2.514527
H    -3.516439  -2.721811  1.933407
H    -3.083887  -4.894579  2.440608
H    -1.771840  -4.379745  3.535624
H    -1.428294  -4.713498  1.813573
Ba    1.949097  -1.567477  2.856309
