36
Energy: -246329.155786 eV PBE+vdW (tier 2 basis)
C    -0.693122  -0.681242  -0.481978
C    -0.397570  -0.628368  0.985676
O    0.791532  -0.865217  1.409017
H    -0.055332  0.038310  -1.012620
H    -1.739960  -0.458632  -0.710768
H    -0.453541  -1.682876  -0.863700
N    -1.381711  -0.337960  1.810608
C    -1.391321  -0.337947  3.269672
C    -2.867179  -0.744974  3.592481
O    -3.714013  -0.595171  2.708898
H    -2.360808  -0.267145  1.471294
H    -0.682719  -1.092970  3.640137
C    -1.111907  1.063200  3.860260
C    0.285651  1.663882  3.654703
C    1.395109  0.981171  4.469259
N    2.595912  1.789651  4.645481
C    3.556531  2.036119  3.720528
N    4.352652  3.104539  3.955893
N    3.713098  1.247279  2.656679
H    -1.332126  1.022797  4.938422
H    -1.855614  1.750631  3.432159
H    0.237207  2.712998  3.981499
H    0.556616  1.693943  2.589722
H    1.664734  -0.000638  4.045212
H    1.031691  0.757729  5.482128
H    2.613449  2.367266  5.478366
H    5.213845  3.235498  3.441254
H    4.162980  3.768432  4.696723
H    4.399396  1.689000  2.036431
N    -3.113101  -1.197438  4.832754
C    -4.450364  -1.555453  5.304240
H    -2.337251  -1.310003  5.475933
H    -4.735733  -0.927239  6.156656
H    -4.478419  -2.609570  5.604820
H    -5.155759  -1.394615  4.484743
Ba    3.137947  -1.067657  1.724747
