36
Energy: -246328.339068 eV PBE+vdW (tier 2 basis)
C    -1.948836  -2.206745  2.424385
C    -1.257456  -1.367769  3.441176
O    -0.030837  -1.548177  3.727034
H    -1.271195  -2.447703  1.598112
H    -2.894172  -1.787641  2.050626
H    -2.188058  -3.163190  2.919937
N    -1.934007  -0.402930  4.110689
C    -2.845211  0.542837  3.469996
C    -1.998750  1.444694  2.538381
O    -0.724518  1.480423  2.658612
H    -1.426363  -0.028296  4.913365
H    -3.536844  -0.023561  2.828838
C    -3.614493  1.321287  4.568374
C    -4.792440  2.203293  4.128922
C    -6.095318  1.452554  3.783213
N    -5.957388  0.324210  2.868017
C    -5.460287  0.351007  1.592423
N    -5.545926  1.599109  0.939962
N    -4.845553  -0.693608  1.135865
H    -2.891790  1.945737  5.118626
H    -3.974110  0.562424  5.280289
H    -4.499121  2.866098  3.302518
H    -5.027006  2.883490  4.960296
H    -6.834360  2.175383  3.404187
H    -6.537507  1.042071  4.699605
H    -5.944189  -0.607003  3.269476
H    -5.489225  1.509411  -0.073108
H    -6.359511  2.161832  1.191589
H    -4.662116  -0.634728  0.131365
N    -2.622101  2.154849  1.619184
C    -1.947614  3.072918  0.702731
H    -3.644329  2.041628  1.493651
H    -1.357983  2.521376  -0.041368
H    -1.287344  3.751042  1.254361
H    -2.709890  3.660691  0.183990
Ba    1.403000  0.380278  3.186355
