36
Energy: -246329.006718 eV PBE+vdW (tier 2 basis)
C    -0.742658  1.998096  0.175394
C    -0.499845  1.520374  1.580474
O    0.213926  2.083201  2.396563
H    -1.539307  2.756160  0.195142
H    -1.047522  1.197999  -0.509944
H    0.161876  2.485490  -0.201802
N    -1.150089  0.327937  1.948764
C    -1.221479  0.012825  3.363139
C    0.024085  -0.728073  3.868012
O    0.155605  -0.943826  5.118458
H    -1.885752  -0.019120  1.340680
H    -1.178369  0.971598  3.910813
C    -2.503775  -0.724565  3.778202
C    -2.729811  -2.125642  3.168861
C    -3.452107  -3.102916  4.112633
N    -2.540789  -3.772104  5.057968
C    -2.123693  -3.309013  6.248329
N    -0.986774  -3.933443  6.824829
N    -2.556355  -2.276667  6.933067
H    -3.359936  -0.073267  3.554375
H    -2.467673  -0.797873  4.871553
H    -1.775773  -2.585932  2.868016
H    -3.327048  -2.045615  2.249939
H    -3.932232  -3.903956  3.538706
H    -4.260029  -2.606041  4.668601
H    -2.198119  -4.682974  4.768448
H    -0.514770  -4.616217  6.232726
H    -1.206067  -4.353467  7.730039
H    -3.453069  -1.913159  6.606448
N    0.919297  -1.101123  2.977295
C    2.216224  -1.705010  3.248407
H    0.692124  -0.823480  2.020112
H    3.008306  -0.948794  3.169465
H    2.410185  -2.498439  2.518730
H    2.220294  -2.127789  4.256527
Ba    -0.267623  -1.138470  7.486340
