36
Energy: -246329.278359 eV PBE+vdW (tier 2 basis)
C    -0.745347  -0.614755  -0.153888
C    -0.049715  0.459344  0.618018
O    0.986649  1.022577  0.131544
H    -0.888810  -0.263042  -1.183488
H    -1.712382  -0.904765  0.266542
H    -0.101859  -1.503950  -0.210319
N    -0.482782  0.863193  1.808774
C    -1.528414  0.356107  2.694118
C    -1.646371  1.455845  3.780336
O    -0.663730  2.188912  4.005854
H    -0.003213  1.664116  2.233157
H    -2.472718  0.286373  2.135215
C    -1.200668  -1.044128  3.296412
C    -0.476634  -1.161820  4.651839
C    0.877316  -0.468476  4.873860
N    1.836777  -0.654659  3.778027
C    2.596051  0.278600  3.176333
N    2.269786  1.650855  3.315703
N    3.602172  0.055731  2.356257
H    -0.647708  -1.604981  2.529624
H    -2.153504  -1.579393  3.410430
H    -0.358069  -2.239990  4.837325
H    -1.133268  -0.807207  5.460038
H    0.735796  0.603550  5.028818
H    1.322112  -0.863868  5.799158
H    2.078865  -1.617915  3.556370
H    2.999636  2.151197  3.825424
H    1.353599  1.853870  3.738208
H    3.935085  -0.910477  2.360248
N    -2.805242  1.516776  4.441315
C    -3.081914  2.452342  5.530459
H    -3.559947  0.905617  4.143338
H    -3.894028  3.132012  5.245850
H    -2.177906  3.033140  5.729107
H    -3.373653  1.903392  6.433631
Ba    3.241066  1.849011  0.514656
