36
Energy: -246329.007999 eV PBE+vdW (tier 2 basis)
C    0.968751  -0.665238  1.182708
C    0.759468  0.040661  2.487941
O    1.745268  0.536747  3.113137
H    0.958856  0.058736  0.353407
H    0.207389  -1.425967  0.981926
H    1.959032  -1.133086  1.199955
N    -0.484062  0.155080  3.001862
C    -1.648128  0.491852  2.178489
C    -1.556543  2.003104  1.777908
O    -0.398953  2.598638  1.987826
H    -0.494054  0.566253  3.936222
H    -1.545517  -0.076187  1.242403
C    -2.968211  0.093964  2.882507
C    -3.889887  -0.839167  2.080048
C    -4.360217  -0.279817  0.728302
N    -4.916407  1.065231  0.826384
C    -6.200891  1.383772  0.919661
N    -7.166668  0.455757  1.046956
N    -6.562151  2.681845  0.887076
H    -3.513430  1.004699  3.162267
H    -2.715220  -0.418284  3.820482
H    -4.761866  -1.069476  2.710250
H    -3.388541  -1.800973  1.892151
H    -5.076656  -0.960970  0.249476
H    -3.516353  -0.205962  0.026321
H    -4.157456  1.791050  0.973342
H    -6.940676  -0.521463  1.169941
H    -8.136440  0.683396  0.866590
H    -7.497626  2.978191  1.132297
N    -2.596151  2.544254  1.243008
C    -2.500965  3.931438  0.801033
H    -5.894299  3.395582  0.629693
H    -3.303619  4.141261  0.082718
H    -1.542234  4.155550  0.311368
H    -2.617553  4.625711  1.647882
Ba    1.742739  3.018182  2.834912
