36
Energy: -246329.372644 eV PBE+vdW (tier 2 basis)
C    0.409696  -0.773323  0.445972
C    0.183462  -0.402721  1.879546
O    1.153158  -0.039574  2.608437
H    -0.504087  -1.079628  -0.073906
H    1.143547  -1.587751  0.392221
H    0.846360  0.087836  -0.077459
N    -1.065344  -0.454633  2.361884
C    -1.449671  -0.015679  3.718577
C    -0.972820  -1.028373  4.786439
O    0.120056  -0.654306  5.422375
H    -1.796591  -0.729139  1.714291
H    -0.850076  0.887871  3.900585
C    -2.919941  0.454110  3.780218
C    -4.052663  -0.563323  3.956721
C    -4.224089  -1.558420  2.802694
N    -5.203871  -2.604073  3.087675
C    -4.903517  -3.744861  3.731134
N    -5.842844  -4.701950  3.836068
N    -3.683397  -3.930595  4.234177
H    -3.099316  1.079835  2.890217
H    -2.978771  1.145986  4.631753
H    -4.988578  0.002129  4.075307
H    -3.900199  -1.115017  4.892702
H    -3.279504  -2.071995  2.572246
H    -4.552523  -1.047781  1.886471
H    -6.182369  -2.406517  2.908434
H    -5.720559  -5.491423  4.456978
H    -6.692740  -4.673654  3.287035
H    -3.427647  -4.855473  4.557547
N    -1.599045  -2.143343  4.974772
C    -1.040868  -3.029426  5.998445
H    -2.983296  -3.155851  4.385806
H    -1.810879  -3.734654  6.334490
H    -0.674533  -2.480243  6.875936
H    -0.202118  -3.619844  5.595529
Ba    2.231978  0.101695  4.820535
