36
Energy: -246329.087906 eV PBE+vdW (tier 2 basis)
C    1.066898  0.966211  1.381393
C    0.438920  0.442164  2.638085
O    0.851021  0.993482  3.771648
H    2.157233  0.837749  1.421074
H    0.876805  2.044405  1.290302
H    0.672164  0.452490  0.500904
N    -0.460937  -0.496725  2.564362
C    -1.051208  -0.901896  3.830071
C    -0.044800  -1.620786  4.745769
O    0.186132  -1.126073  5.897426
H    -3.977156  -2.190958  -1.679570
H    -1.304652  -0.009624  4.434343
C    -2.413473  -1.612992  3.628238
C    -2.504207  -2.684923  2.536810
C    -3.965985  -2.907812  2.125677
N    -4.149645  -3.905584  1.062878
C    -4.167488  -3.655370  -0.251570
N    -4.598657  -4.597497  -1.104868
N    -3.765628  -2.469327  -0.729276
H    -3.111424  -0.801332  3.368564
H    -2.759804  -2.011109  4.594010
H    -2.081567  -3.641004  2.874965
H    -1.909831  -2.354672  1.671216
H    -4.428899  -1.967072  1.792708
H    -4.562058  -3.252957  2.980954
H    -4.277578  -4.871802  1.345157
H    -4.431043  -4.522835  -2.100830
H    -5.141501  -5.390592  -0.785638
H    -3.238527  -1.821271  -0.158102
N    0.640772  -2.702846  4.373281
C    0.711323  -3.365405  3.074574
H    1.257300  -3.060203  5.101664
H    0.177167  -4.323945  3.091263
H    1.763983  -3.561153  2.838741
H    0.301244  -2.705173  2.306048
Ba    1.121695  1.173896  6.049008
