36
Energy: -246328.656007 eV PBE+vdW (tier 2 basis)
C    0.143189  -2.529736  1.955290
C    -0.107256  -1.301467  2.792681
O    0.846342  -0.994270  3.646852
H    1.031466  -2.361485  1.330922
H    -0.705004  -2.779215  1.311587
H    0.369404  -3.399418  2.588989
N    -1.224396  -0.650981  2.626880
C    -1.462398  0.636247  3.271117
C    -1.189002  0.753719  4.773084
O    -1.208606  -0.235769  5.567887
H    -2.475056  -1.388308  1.601230
H    -0.809251  1.386118  2.789034
C    -2.939322  1.068289  3.025307
C    -3.194936  1.577367  1.588147
C    -4.536741  1.148232  0.941783
N    -4.365410  0.187727  -0.167157
C    -3.604256  -0.909294  -0.059601
N    -2.982635  -1.419646  -1.130489
N    -3.426146  -1.518452  1.135722
H    -3.231011  1.846219  3.742753
H    -3.569561  0.202877  3.272007
H    -2.378085  1.251914  0.928967
H    -3.148041  2.674070  1.590334
H    -5.049811  2.009291  0.500937
H    -5.231414  0.739714  1.691797
H    -4.681146  0.474733  -1.089003
H    -2.929265  -0.923648  -2.012763
H    -2.677835  -2.385963  -1.107822
H    -4.159442  -1.295992  1.804619
N    -0.959095  1.975429  5.274704
C    -0.882342  3.258289  4.574805
H    -0.925060  2.008224  6.291753
H    -0.224042  3.190552  3.701420
H    -0.459740  3.995903  5.263019
H    -1.872306  3.611108  4.257300
Ba    0.780943  -1.649513  5.885048
