36
Energy: -246328.665302 eV PBE+vdW (tier 2 basis)
C    1.183053  -0.159357  0.891639
C    0.558851  0.420084  2.117477
O    1.189654  1.283479  2.820874
H    1.189425  0.610320  0.105087
H    0.639483  -1.038027  0.521971
H    2.228426  -0.417320  1.098301
N    -0.668024  0.023170  2.446084
C    -1.486044  0.592539  3.526882
C    -0.909034  0.186932  4.903061
O    -0.097001  0.960228  5.498599
H    -1.220575  -0.542919  1.743283
H    -1.407643  1.692286  3.496231
C    -2.956228  0.171693  3.343208
C    -3.734726  0.780025  2.158037
C    -3.161206  0.596848  0.741464
N    -2.566636  -0.729963  0.565542
C    -1.865820  -1.118857  -0.616648
N    -1.834777  -0.174489  -1.620857
N    -1.250399  -2.242226  -0.543716
H    -3.498657  0.443294  4.259565
H    -3.003938  -0.928168  3.275118
H    -3.880625  1.856952  2.323609
H    -4.740909  0.338224  2.199884
H    -2.371105  1.338163  0.551843
H    -3.973234  0.809645  0.024927
H    -3.144842  -1.508564  0.878026
H    -1.380523  -0.463083  -2.481337
H    -2.657236  0.400505  -1.778382
H    -0.841172  -2.531478  -1.435507
N    -1.273715  -0.972090  5.427636
C    -0.809663  -1.500360  6.710219
H    -1.925668  -1.543391  4.896317
H    -1.618633  -2.078632  7.167116
H    -0.539099  -0.671042  7.369038
H    0.059093  -2.156162  6.566260
Ba    1.813682  2.344683  4.858523
