36
Energy: -246328.328367 eV PBE+vdW (tier 2 basis)
C    0.409594  0.975764  1.597880
C    0.571225  -0.546293  1.538677
O    1.371040  -1.034816  2.495575
H    -0.149040  1.424951  0.768943
H    1.410742  1.417949  1.633107
H    -0.107250  1.256297  2.526679
N    -0.751243  -1.258231  1.699962
C    -2.037550  -0.740878  1.235556
C    -2.835384  -0.296602  2.501284
O    -2.346054  -0.471652  3.646025
H    -0.622867  -2.220032  1.386090
H    -1.887773  0.171853  0.634005
C    -2.778496  -1.784235  0.370563
C    -2.374218  -1.898480  -1.114351
C    -0.946939  -2.370786  -1.491319
N    -0.023540  -1.287843  -1.873419
C    0.710431  -0.525294  -1.048823
N    1.064937  0.710477  -1.431786
N    1.139078  -0.975030  0.159065
H    -3.856564  -1.570019  0.380244
H    -2.688272  -2.767120  0.863715
H    -2.571383  -0.944027  -1.626604
H    -3.073692  -2.616454  -1.564408
H    -1.003265  -3.026506  -2.367376
H    -0.488660  -2.979711  -0.701338
H    -0.058488  -1.009906  -2.851953
H    1.879452  1.140099  -1.006801
H    0.657758  1.166255  -2.241239
H    1.297151  -1.982302  0.185397
N    -4.014470  0.291706  2.309243
C    -4.891991  0.782694  3.371496
H    -4.335312  0.416589  1.353409
H    -5.025085  1.867268  3.277923
H    -4.437057  0.553057  4.337487
H    -5.870840  0.293570  3.302937
Ba    -0.048116  -1.367164  4.394816
