36
Energy: -246329.386555 eV PBE+vdW (tier 2 basis)
C    0.652657  -2.663673  2.429250
C    0.247836  -1.233507  2.672046
O    0.635380  -0.380563  1.753646
H    0.560064  -2.889169  1.360605
H    0.036717  -3.372721  2.989316
H    1.708238  -2.810589  2.700385
N    -0.442863  -0.928468  3.742565
C    -0.918066  0.459234  3.863466
C    0.186817  1.327974  4.482504
O    1.075181  1.847506  3.739267
H    -0.621217  -2.336122  4.963751
H    -1.028065  0.881825  2.849849
C    -2.326567  0.560357  4.536170
C    -2.887930  -0.723098  5.153924
C    -2.243774  -1.097528  6.497001
N    -2.418887  -2.499498  6.867956
C    -1.591308  -3.471817  6.454323
N    -1.723385  -4.709774  6.962624
N    -0.631752  -3.199056  5.567332
H    -3.028042  0.879667  3.755511
H    -2.346456  1.380803  5.270962
H    -2.760219  -1.548303  4.441080
H    -3.970205  -0.600618  5.297643
H    -2.659498  -0.490176  7.312225
H    -1.158549  -0.917534  6.480686
H    -3.259063  -2.768703  7.368259
H    -1.259586  -5.503510  6.539972
H    -2.293156  -4.888862  7.780007
H    0.099842  -3.882690  5.416900
N    0.234919  1.513240  5.797554
C    1.272884  2.289137  6.475466
H    -0.518405  1.133240  6.358630
H    2.256248  1.825492  6.332371
H    1.042944  2.320993  7.543669
H    1.303095  3.312912  6.083896
Ba    1.729934  1.622815  1.365065
