36
Energy: -246329.898579 eV PBE+vdW (tier 2 basis)
C    -1.166755  -0.859527  0.123469
C    -1.409110  -0.570602  1.574972
O    -1.651554  -1.502563  2.381793
H    -0.296593  -1.523229  0.032585
H    -0.996423  0.035344  -0.484119
H    -2.029607  -1.407286  -0.277359
N    -1.359129  0.720162  1.962899
C    -1.597584  1.289403  3.305065
C    -0.429510  0.946356  4.259044
O    -0.374292  -0.179275  4.817104
H    -1.153989  1.392725  1.231011
H    -1.606181  2.375577  3.139723
C    -2.929601  0.900451  3.964131
C    -4.194559  1.013237  3.115685
C    -5.345408  0.196431  3.729657
N    -5.395431  -1.212646  3.304970
C    -5.238832  -2.289794  4.132644
N    -6.120511  -3.304300  3.941758
N    -4.246328  -2.343030  5.016527
H    -3.029363  1.525711  4.864476
H    -2.876735  -0.125480  4.344556
H    -4.022840  0.661858  2.088553
H    -4.505242  2.064488  3.038268
H    -6.304340  0.649269  3.445755
H    -5.296264  0.219770  4.826370
H    -5.998255  -1.384495  2.506018
H    -5.969632  -4.208014  4.372277
H    -7.038283  -3.139657  3.544130
H    -4.497319  -3.021896  5.743910
N    0.483950  1.893636  4.457955
C    1.654931  1.758329  5.322888
H    0.365555  2.777996  3.972171
H    2.565670  1.660365  4.718542
H    1.534917  0.869640  5.946892
H    1.740694  2.645820  5.959339
Ba    -1.607509  -2.405270  4.695391
