36
Energy: -246328.504512 eV PBE+vdW (tier 2 basis)
C    0.384841  0.302333  0.122890
C    0.217901  0.153635  1.599832
O    1.191883  0.426757  2.382205
H    -0.509232  0.034458  -0.451203
H    1.226602  -0.318910  -0.211059
H    0.656609  1.345057  -0.093939
N    -0.957143  -0.258305  2.070975
C    -1.358162  -0.290340  3.486280
C    -0.760463  -1.513779  4.213129
O    0.462480  -1.499898  4.553501
H    -1.757212  -0.374347  1.395315
H    -0.869908  0.565916  3.980577
C    -2.880180  -0.041196  3.601206
C    -3.935143  -1.048590  3.068420
C    -3.700799  -1.737846  1.715886
N    -3.336868  -0.771176  0.671848
C    -2.885371  -1.169351  -0.626341
N    -2.423617  -2.475276  -0.699312
N    -2.729909  -0.370706  -1.613112
H    -3.041452  0.926369  3.104947
H    -3.103155  0.144292  4.661443
H    -4.882330  -0.489877  3.026693
H    -4.150661  -1.837892  3.808918
H    -4.606900  -2.313658  1.462441
H    -2.872115  -2.458951  1.789529
H    -3.997831  0.001205  0.594783
H    -2.140147  -2.701772  -1.650676
H    -3.019355  -3.198230  -0.305128
H    -3.014146  0.591508  -1.411501
N    -1.526922  -2.554476  4.492983
C    -1.062342  -3.752101  5.195615
H    -2.506022  -2.503761  4.227257
H    -1.921273  -4.403590  5.375161
H    -0.610321  -3.477931  6.155767
H    -0.322351  -4.289659  4.590497
Ba    2.554430  -0.266604  4.202547
