31
Energy: -573019.7111427  eV PBE+vdW (tier 2 basis)
C    -1.41032  -0.87350  -0.16183
C    -0.98081  -0.23248  1.11752
O    0.21037  0.22793  1.12707
H    -1.13826  -0.21562  -1.00127
H    -2.48617  -1.07993  -0.19506
H    -0.83771  -1.80374  -0.30180
N    -1.85097  -0.18153  2.14931
C    -1.84809  0.71458  3.32256
C    -1.21311  0.06934  4.58414
O    0.00400  -0.33945  4.56401
H    -2.73689  -0.64663  1.95847
H    -1.15726  1.54478  3.08842
C    -3.21997  1.41698  3.48509
C    -4.48348  0.60150  3.60688
N    -5.72277  1.21994  3.44875
C    -4.77067  -0.71607  3.87890
C    -6.71322  0.33624  3.61758
N    -6.14760  -0.84345  3.87590
H    -3.32818  2.07572  2.60891
H    -3.14148  2.10773  4.34193
H    -5.88334  2.20717  3.24412
H    -4.13219  -1.56902  4.07761
H    -7.77856  0.54350  3.55472
H    -6.66798  -1.70583  4.04617
N    -1.88513  -0.03736  5.71285
C    -1.32971  -0.53824  6.98162
H    -2.87151  0.21483  5.71475
H    -1.84124  -0.02845  7.80440
H    -0.25480  -0.33727  7.01571
H    -1.49546  -1.62149  7.06307
Hg    1.37251  0.34781  2.97850
