31
Energy: -573019.6328708  eV PBE+vdW (tier 2 basis)
C    0.20398  -0.57931  0.30771
C    0.01338  0.23467  1.54690
O    1.03545  0.89443  1.93012
H    0.56153  0.07944  -0.49890
H    -0.71579  -1.08058  -0.01572
H    0.99880  -1.31930  0.48183
N    -1.19444  0.22574  2.15653
C    -1.68329  1.14863  3.19260
C    -1.37042  0.62898  4.62118
O    -0.33143  1.05530  5.24908
H    -1.85601  -0.44378  1.76997
H    -1.07721  2.06374  3.10404
C    -3.12548  1.69724  2.92794
C    -4.34957  0.82437  2.87823
N    -4.90602  0.33361  1.69406
C    -5.27329  0.52735  3.85589
C    -6.09814  -0.22852  1.93500
N    -6.32307  -0.12506  3.24644
H    -3.06254  2.25999  1.98427
H    -3.29931  2.46023  3.70094
H    -4.54222  0.46670  0.75151
H    -5.30089  0.78556  4.90914
H    -6.76109  -0.67582  1.19898
H    -7.17254  -0.45157  3.71195
N    -2.15639  -0.24218  5.21833
C    -1.91952  -0.81857  6.55321
H    -3.02164  -0.49907  4.74425
H    -0.84308  -0.88645  6.73725
H    -2.37528  -1.81298  6.58487
H    -2.37315  -0.18098  7.32435
Hg    1.33888  1.68275  3.96196
