31
Energy: -573019.8700030  eV PBE+vdW (tier 2 basis)
C    0.36962  -3.39166  1.16804
C    0.09788  -2.04954  1.76509
O    1.06730  -1.21668  1.69715
H    0.81122  -3.25689  0.16872
H    -0.53122  -4.01131  1.08724
H    1.13197  -3.90259  1.77702
N    -1.11012  -1.81476  2.31912
C    -1.76050  -0.52784  2.65844
C    -1.47812  -0.12698  4.13415
O    -0.48454  0.64363  4.41653
H    -1.71513  -2.63550  2.34371
H    -1.29230  0.25705  2.04287
C    -3.24727  -0.62319  2.23329
C    -4.04293  0.65378  2.22245
N    -5.29015  0.70070  1.60300
C    -3.83019  1.91923  2.70982
C    -5.81428  1.92789  1.70363
N    -4.93561  2.67572  2.37293
H    -3.77280  -1.38255  2.84043
H    -3.24164  -1.02712  1.20791
H    -5.76191  -0.06894  1.12789
H    -3.00335  2.35253  3.25855
H    -6.77441  2.25175  1.31105
H    -5.07260  3.66310  2.59399
N    -2.25060  -0.55381  5.11005
C    -2.03564  -0.30344  6.54499
H    -3.09382  -1.07164  4.86480
H    -0.98066  -0.08167  6.72645
H    -2.34401  -1.19755  7.09800
H    -2.64857  0.54833  6.87072
Hg    1.22438  0.48395  3.04193
