31
Energy: -573019.3769583  eV PBE+vdW (tier 2 basis)
C    -1.56655  3.52972  0.61320
C    -0.98300  2.59063  1.60294
O    -0.09761  3.04548  2.40606
H    -2.17985  4.28913  1.12345
H    -2.13846  3.01573  -0.16591
H    -0.74075  4.09000  0.14325
N    -1.31375  1.27245  1.65710
C    -2.67640  0.74115  1.72690
C    -3.07791  0.77495  3.24236
O    -2.18618  0.78227  4.16055
H    -0.65345  0.72008  2.20977
H    -3.34286  1.41413  1.16982
C    -2.77033  -0.70817  1.16671
C    -2.54704  -0.86968  -0.31266
N    -1.65791  -1.80220  -0.83869
C    -3.18409  -0.32129  -1.40198
C    -1.74489  -1.83040  -2.17466
N    -2.66512  -0.92809  -2.52453
H    -3.76543  -1.10991  1.41229
H    -2.06147  -1.34591  1.71644
H    -1.04933  -2.42470  -0.30871
H    -3.97512  0.41566  -1.47434
H    -1.17619  -2.46871  -2.84477
H    -2.94891  -0.74014  -3.48737
N    -4.36071  0.71541  3.56661
C    -4.91125  0.74141  4.92304
H    -5.03911  0.57255  2.81559
H    -5.81756  1.36017  4.91973
H    -4.16781  1.12951  5.62288
H    -5.19215  -0.28094  5.22374
Hg    -0.39082  2.20669  4.46419
