31
Energy: -573019.6284585  eV PBE+vdW (tier 2 basis)
C    -0.38721  -1.08794  1.18038
C    -0.10777  0.37318  1.16937
O    1.00862  0.87546  1.48409
H    0.43372  -1.61226  0.66932
H    -1.32858  -1.37964  0.70566
H    -0.39144  -1.44832  2.22142
N    -1.06685  1.31022  0.86905
C    -2.50614  1.15953  0.92066
C    -3.11302  1.81810  -0.38566
O    -3.86863  2.77438  -0.29097
H    -0.69752  2.26610  0.85860
H    -2.73505  0.08605  0.89126
C    -3.22619  1.69617  2.20799
C    -3.26893  3.15087  2.54919
N    -4.25825  4.03586  2.13021
C    -2.54091  3.85216  3.50019
C    -4.14514  5.20112  2.76601
N    -3.09959  5.09763  3.60460
H    -2.77109  1.16701  3.05712
H    -4.25889  1.32286  2.13827
H    -4.93359  3.84446  1.38949
H    -1.71614  3.53953  4.13075
H    -4.77624  6.07543  2.63128
H    -2.79698  5.83738  4.24096
N    -2.75636  1.24850  -1.56063
C    -3.36345  1.62393  -2.82926
H    -2.21023  0.38866  -1.54144
H    -3.61102  2.69200  -2.81210
H    -4.29469  1.05683  -3.00891
H    -2.66237  1.37777  -3.63690
Hg    3.16930  -0.02863  1.18076
