31
Energy: -573019.7399839  eV PBE+vdW (tier 2 basis)
C    0.51527  4.01719  1.75222
C    0.02351  2.79496  2.46360
O    0.56166  1.69828  2.07756
H    -0.15491  4.87748  1.86518
H    0.65364  3.79099  0.68612
H    1.51337  4.26846  2.14783
N    -0.90762  2.95061  3.42245
C    -1.79610  2.01594  4.16976
C    -1.08351  1.19382  5.27922
O    -0.49539  0.06625  5.06907
H    -1.12971  3.93074  3.58687
H    -2.46186  2.69929  4.71232
C    -2.69128  1.11562  3.26811
C    -3.86718  1.80873  2.62664
N    -4.26698  1.54521  1.31870
C    -4.82768  2.64998  3.13556
C    -5.40951  2.18630  1.03997
N    -5.75267  2.86461  2.13621
H    -3.07031  0.29105  3.89342
H    -2.09006  0.63977  2.48124
H    -3.80523  0.92603  0.65455
H    -4.95545  3.08930  4.11763
H    -5.95155  2.15863  0.09904
H    -6.59010  3.44379  2.21633
N    -1.17967  1.62358  6.52326
C    -0.59739  0.97512  7.70423
H    -1.76478  2.43939  6.70825
H    -0.25024  1.75792  8.38891
H    0.22477  0.32030  7.40497
H    -1.37041  0.37862  8.21200
Hg    0.74036  -0.10793  3.28879
