31
Energy: -573019.5177650  eV PBE+vdW (tier 2 basis)
C    -0.02211  -0.32521  0.06524
C    -0.22543  0.47711  1.30876
O    0.24748  1.66450  1.27888
H    -0.34237  0.27307  -0.80174
H    -0.57201  -1.27315  0.07589
H    1.05468  -0.50980  -0.06949
N    -0.87843  -0.07882  2.34941
C    -1.57143  0.56754  3.47701
C    -0.69100  0.66900  4.75125
O    0.49906  1.14322  4.68471
H    -1.13107  -1.05533  2.20072
H    -1.73303  1.62505  3.19858
C    -3.01664  -0.02177  3.61661
C    -3.28091  -1.48884  3.40845
N    -3.02640  -2.53585  4.30080
C    -3.99938  -2.06209  2.38407
C    -3.56424  -3.67657  3.84583
N    -4.15276  -3.39737  2.68119
H    -3.62236  0.49013  2.85656
H    -3.45893  0.31781  4.56698
H    -2.53600  -2.49088  5.19046
H    -4.44387  -1.61775  1.49986
H    -3.52729  -4.64600  4.33557
H    -4.66245  -4.07872  2.11465
N    -1.15104  0.32340  5.93936
C    -0.42805  0.50803  7.20947
H    -2.08711  -0.06860  6.00032
H    0.20783  1.39645  7.14299
H    0.20444  -0.36680  7.41401
H    -1.16505  0.62226  8.01046
Hg    1.02039  2.59571  3.10026
