31
Energy: -573019.7842253  eV PBE+vdW (tier 2 basis)
C    -0.14296  1.53060  0.51017
C    -0.10407  0.52234  1.61757
O    1.07241  0.21043  2.01389
H    -1.10879  1.55994  -0.00831
H    0.66064  1.32001  -0.20851
H    0.07655  2.52204  0.93973
N    -1.27462  0.05324  2.08714
C    -1.65172  -1.05141  3.01092
C    -1.34577  -0.75856  4.50437
O    -0.22522  -1.04606  5.07170
H    -2.07589  0.49897  1.64400
H    -2.74723  -1.07011  2.93654
C    -1.13407  -2.46029  2.57209
C    -1.84828  -3.09157  1.41082
N    -2.92677  -3.96513  1.55218
C    -1.58327  -3.05799  0.06342
C    -3.29863  -4.44189  0.35759
N    -2.49189  -3.89117  -0.55259
H    -1.20315  -3.13021  3.44230
H    -0.06683  -2.41696  2.31716
H    -3.35463  -4.26989  2.42524
H    -0.81184  -2.54584  -0.49890
H    -4.10001  -5.15031  0.16732
H    -2.53703  -4.08712  -1.55397
N    -2.32285  -0.28368  5.25463
C    -2.22782  0.04456  6.68203
H    -3.24969  -0.19066  4.83665
H    -2.83752  0.93610  6.87015
H    -1.18419  0.21550  6.95805
H    -2.62824  -0.78947  7.27797
Hg    1.60439  -0.60240  3.97167
