31
Energy: -573019.3769566  eV PBE+vdW (tier 2 basis)
C    -1.49787  1.37845  -0.17113
C    -1.15816  0.70691  1.10776
O    -0.13106  -0.05547  1.12562
H    -1.44139  0.62890  -0.97833
H    -0.73395  2.13191  -0.42027
H    -2.50015  1.81836  -0.16099
N    -1.91142  0.83137  2.23326
C    -2.33983  2.09693  2.83276
C    -1.14327  2.58402  3.72097
O    -0.27491  1.75664  4.16801
H    -1.69321  0.12221  2.93753
H    -2.50355  2.82721  2.02816
C    -3.62577  1.93216  3.69358
C    -4.89148  1.59796  2.95143
N    -5.73849  0.56673  3.34638
C    -5.54493  2.22837  1.91765
C    -6.85174  0.56406  2.60211
N    -6.73814  1.56662  1.72728
H    -3.78874  2.86623  4.25323
H    -3.43933  1.16735  4.46293
H    -5.58494  -0.08097  4.11823
H    -5.28364  3.09959  1.32889
H    -7.68833  -0.12250  2.69539
H    -7.44936  1.80936  1.03577
N    -1.08539  3.85940  4.07347
C    -0.04383  4.48379  4.89147
H    -1.86647  4.46478  3.81237
H    0.18849  5.46913  4.46775
H    0.84210  3.84564  4.92262
H    -0.42167  4.62906  5.91644
Hg    1.01944  0.21582  3.02965
