31
Energy: -573019.7839801  eV PBE+vdW (tier 2 basis)
C    0.64239  1.02882  0.38707
C    0.38313  0.08434  1.52071
O    1.43109  -0.46931  2.00406
H    1.05082  1.96384  0.80479
H    -0.25715  1.25027  -0.19963
H    1.42227  0.61520  -0.26649
N    -0.88973  -0.08779  1.92207
C    -1.56402  -1.04034  2.84622
C    -1.29064  -0.76326  4.34901
O    -0.30201  -1.27347  4.99903
H    -1.53979  0.50964  1.41455
H    -2.62837  -0.81444  2.69760
C    -1.35523  -2.54615  2.47910
C    -2.13220  -3.04718  1.29469
N    -3.38035  -3.66182  1.39712
C    -1.80285  -3.11532  -0.03715
C    -3.79015  -4.08534  0.19496
N    -2.84088  -3.75178  -0.68260
H    -1.61961  -3.14805  3.36143
H    -0.29384  -2.75298  2.28794
H    -3.90504  -3.83812  2.25255
H    -0.91296  -2.80043  -0.56863
H    -4.71653  -4.60957  -0.02242
H    -2.88035  -3.96552  -1.68055
N    -2.17708  -0.04895  5.01764
C    -2.09709  0.30825  6.43903
H    -3.03081  0.23416  4.53452
H    -1.06207  0.24277  6.78381
H    -2.71938  -0.38349  7.02665
H    -2.49051  1.32443  6.55985
Hg    1.64291  -1.30038  4.01408
