31
Energy: -573019.3770829  eV PBE+vdW (tier 2 basis)
C    -1.56739  3.51548  0.40028
C    -0.98152  2.62577  1.43326
O    -0.10391  3.12146  2.22012
H    -2.17885  4.29944  0.87399
H    -2.14122  2.96341  -0.35107
H    -0.74256  4.05104  -0.09940
N    -1.30196  1.30806  1.54260
C    -2.66036  0.76905  1.63027
C    -3.05615  0.84351  3.14566
O    -2.16106  0.89883  4.05881
H    -0.64249  0.78765  2.12652
H    -3.33299  1.42158  1.05665
C    -2.74770  -0.69588  1.10570
C    -2.53906  -0.89092  -0.37129
N    -1.55518  -1.72531  -0.89378
C    -3.26782  -0.46465  -1.45800
C    -1.67380  -1.81245  -2.22489
N    -2.70753  -1.04275  -2.57542
H    -3.73764  -1.09832  1.36830
H    -2.03051  -1.31632  1.66412
H    -0.86346  -2.25240  -0.36263
H    -4.14621  0.16616  -1.52835
H    -1.05013  -2.40167  -2.89104
H    -3.03961  -0.92758  -3.53435
N    -4.33621  0.76994  3.47834
C    -4.88056  0.83325  4.83597
H    -5.01503  0.58733  2.73643
H    -4.14458  1.26849  5.51573
H    -5.13105  -0.18412  5.17791
H    -5.80381  1.42591  4.81419
Hg    -0.39163  2.36801  4.31336
