31
Energy: -573019.1485904  eV PBE+vdW (tier 2 basis)
C    -1.00770  0.44236  -0.70485
C    -0.55646  0.15498  0.67739
O    0.64325  -0.26316  0.84412
H    -0.44732  1.29287  -1.12399
H    -2.08948  0.60225  -0.77101
H    -0.73889  -0.42122  -1.33832
N    -1.36742  0.26590  1.76400
C    -2.15676  1.44804  2.10788
C    -1.21110  2.35256  2.94675
O    -0.20686  1.84491  3.57399
H    -0.99651  -0.20669  2.59133
H    -2.39747  1.97979  1.17723
C    -3.52972  1.09181  2.77406
C    -3.58377  0.10016  3.90013
N    -3.71554  0.43836  5.24726
C    -3.71114  -1.26946  3.85868
C    -3.91917  -0.65950  5.98664
N    -3.90799  -1.70193  5.15150
H    -4.15587  0.69490  1.96298
H    -4.01870  2.02486  3.08700
H    -3.73542  1.37784  5.63926
H    -3.72763  -1.95416  3.01833
H    -4.07506  -0.69379  7.06116
H    -4.06399  -2.67002  5.43772
N    -1.42919  3.65338  3.07127
C    -2.54179  4.48058  2.60616
H    -0.70729  4.14503  3.61137
H    -3.14444  4.81696  3.46339
H    -3.17396  3.94981  1.89006
H    -2.12273  5.37726  2.12689
Hg    1.57052  0.67018  2.65413
