31
Energy: -573019.3765423  eV PBE+vdW (tier 2 basis)
C    -1.53415  3.37685  0.25235
C    -0.85000  2.49030  1.22582
O    0.08035  2.99553  1.94240
H    -2.15927  2.82026  -0.45350
H    -0.76280  3.93034  -0.30934
H    -2.11731  4.14658  0.78179
N    -1.13747  1.16590  1.34949
C    -2.47470  0.60310  1.54526
C    -2.73934  0.65666  3.08992
O    -1.76852  0.71894  3.92141
H    -0.42574  0.65584  1.87870
H    -3.20407  1.24846  1.03672
C    -2.58420  -0.85944  1.01383
C    -2.50978  -1.04035  -0.47725
N    -1.49981  -1.75897  -1.11077
C    -3.39648  -0.70461  -1.47493
C    -1.75264  -1.86484  -2.42173
N    -2.89936  -1.21932  -2.65125
H    -3.54029  -1.27980  1.35920
H    -1.81102  -1.47379  1.49955
H    -0.70074  -2.20474  -0.66263
H    -4.34332  -0.17815  -1.44299
H    -1.14355  -2.38347  -3.15651
H    -3.34601  -1.14808  -3.56701
N    -3.98444  0.55797  3.53139
C    -4.41045  0.59821  4.93131
H    -4.72206  0.37180  2.84886
H    -4.62827  -0.42573  5.27629
H    -5.33414  1.18703  4.99868
H    -3.62009  1.02527  5.55255
Hg    -0.01534  2.22726  4.04938
