31
Energy: -573019.6303310  eV PBE+vdW (tier 2 basis)
C    -0.94429  2.53590  1.89727
C    -0.47185  1.17239  2.29827
O    0.78838  0.98529  2.18846
H    -0.65068  3.24967  2.68407
H    -2.02901  2.58503  1.74276
H    -0.42429  2.85073  0.98211
N    -1.38932  0.28184  2.72211
C    -1.31960  -1.16514  3.05375
C    -0.56282  -1.43881  4.37720
O    0.69219  -1.75099  4.40249
H    -2.32769  0.67464  2.77032
H    -2.36452  -1.43434  3.24540
C    -0.81734  -2.08103  1.88157
C    -1.88520  -2.74487  1.05868
N    -2.38412  -2.25687  -0.14842
C    -2.50255  -3.95936  1.24215
C    -3.25695  -3.12624  -0.67614
N    -3.33920  -4.15839  0.16670
H    -0.20360  -2.88393  2.31296
H    -0.14988  -1.51515  1.21695
H    -2.10526  -1.40055  -0.62276
H    -2.39404  -4.70108  2.02531
H    -3.78962  -3.01505  -1.61624
H    -3.92351  -4.98218  0.01305
N    -1.19065  -1.45699  5.53918
C    -2.60829  -1.37018  5.89375
H    -0.56173  -1.63599  6.33249
H    -2.72448  -0.57695  6.64641
H    -2.92544  -2.31925  6.34853
H    -3.23681  -1.14337  5.02974
Hg    2.04216  -0.47779  3.24587
