31
Energy: -573019.6871773  eV PBE+vdW (tier 2 basis)
C    -0.17015  1.74662  0.91458
C    -0.23050  1.23661  2.31974
O    0.67298  1.68029  3.10446
H    -1.08720  1.54103  0.34918
H    0.68931  1.27499  0.41120
H    0.02872  2.82712  0.92246
N    -1.20673  0.36565  2.65016
C    -1.55139  -0.15152  3.98381
C    -0.59629  -1.29354  4.44928
O    0.26452  -1.03125  5.37632
H    -1.81378  0.09444  1.87810
H    -1.36372  0.65273  4.71243
C    -3.05051  -0.52438  4.10538
C    -4.00929  0.62198  4.29278
N    -5.29772  0.39662  4.77188
C    -3.93957  1.97231  4.05811
C    -5.98147  1.54566  4.83019
N    -5.16493  2.50908  4.40113
H    -3.14626  -1.19486  4.97423
H    -3.36607  -1.12102  3.23508
H    -5.69514  -0.50120  5.04752
H    -3.14265  2.59677  3.67592
H    -7.00707  1.66806  5.16739
H    -5.42304  3.49488  4.33932
N    -0.61958  -2.53261  3.99758
C    -1.53292  -3.21708  3.07781
H    0.09497  -3.13135  4.42842
H    -2.35975  -3.68581  3.62991
H    -0.96408  -4.01130  2.57990
H    -1.91770  -2.53455  2.31519
Hg    1.31501  0.87363  5.06555
