31
Energy: -573019.6676246  eV PBE+vdW (tier 2 basis)
C    1.57413  -0.41318  1.04542
C    0.93803  -0.67368  2.37685
O    1.75608  -0.98403  3.30891
H    2.07057  0.57000  1.08610
H    0.85432  -0.42678  0.21800
H    2.36451  -1.15378  0.86344
N    -0.40035  -0.55870  2.47020
C    -1.38033  -0.86835  3.54205
C    -1.28524  0.08969  4.75432
O    -0.58924  -0.19549  5.80616
H    -0.82868  -0.26012  1.59615
H    -2.34729  -0.65784  3.07018
C    -1.39896  -2.36795  3.98413
C    -2.07977  -3.31980  3.04180
N    -3.41011  -3.71636  3.17877
C    -1.59190  -4.04762  1.98373
C    -3.71808  -4.63825  2.25797
N    -2.62121  -4.84036  1.52395
H    -1.88946  -2.42563  4.96705
H    -0.37636  -2.73534  4.14195
H    -4.06374  -3.41740  3.90101
H    -0.60188  -4.09396  1.54644
H    -4.67708  -5.13435  2.13796
H    -2.56088  -5.50695  0.75249
N    -1.99945  1.19969  4.81157
C    -3.03916  1.74736  3.93906
H    -1.83614  1.73822  5.67191
H    -3.12387  1.19477  3.00071
H    -2.78224  2.79366  3.71995
H    -4.00167  1.73830  4.47018
Hg    1.47949  -0.82177  5.48260
