31
Energy: -573019.3764868  eV PBE+vdW (tier 2 basis)
C    -1.61897  3.53092  0.26286
C    -0.89800  2.63913  1.20458
O    0.05128  3.14644  1.89630
H    -2.21441  4.27141  0.82030
H    -2.24070  2.97719  -0.44767
H    -0.87089  4.11938  -0.29438
N    -1.17188  1.31278  1.32667
C    -2.49952  0.73731  1.55388
C    -2.75385  0.82481  3.09826
O    -1.77765  0.88843  3.92382
H    -0.43536  0.79793  1.81554
H    -3.24354  1.35949  1.03725
C    -2.58658  -0.73881  1.07260
C    -2.49735  -0.96612  -0.41242
N    -1.71204  -1.97462  -0.96283
C    -3.18432  -0.42173  -1.47274
C    -1.90639  -2.05026  -2.28560
N    -2.79475  -1.10550  -2.60375
H    -3.53608  -1.16471  1.43313
H    -1.80158  -1.32067  1.57972
H    -1.09910  -2.61058  -0.45400
H    -3.93134  0.36157  -1.51823
H    -1.43136  -2.74903  -2.96831
H    -3.14070  -0.93712  -3.54969
N    -3.99767  0.75018  3.54708
C    -4.41684  0.81620  4.94855
H    -4.74094  0.56485  2.87030
H    -4.65758  -0.19798  5.30615
H    -5.32588  1.42797  5.01236
H    -3.61397  1.23210  5.56133
Hg    -0.00205  2.36603  3.99594
