31
Energy: -573019.7097890  eV PBE+vdW (tier 2 basis)
C    0.66465  0.41084  5.76473
C    -0.58746  0.63258  4.98018
O    -1.01172  1.83676  4.95365
H    0.44697  0.57120  6.83241
H    1.40430  1.17592  5.48308
H    1.09427  -0.58545  5.60903
N    -1.17214  -0.42026  4.36838
C    -2.12690  -0.42696  3.24220
C    -3.60735  -0.54692  3.69526
O    -4.12710  0.33955  4.46537
H    -0.70456  -1.30703  4.54872
H    -2.08421  0.57673  2.78173
C    -1.64131  -1.36766  2.11049
C    -1.35493  -2.82104  2.39721
N    -0.64765  -3.58181  1.46751
C    -1.64983  -3.68893  3.42298
C    -0.51872  -4.84340  1.89430
N    -1.12026  -4.91997  3.08198
H    -0.71792  -0.91469  1.71602
H    -2.36388  -1.29032  1.28023
H    -0.27766  -3.25298  0.57464
H    -2.18584  -3.55150  4.35491
H    -0.01668  -5.65233  1.36949
H    -1.17527  -5.77052  3.64499
N    -4.37808  -1.52883  3.27264
C    -5.81504  -1.65875  3.56996
H    -3.95560  -2.27495  2.72380
H    -6.29051  -2.18690  2.73741
H    -6.25472  -0.66422  3.69297
H    -5.95766  -2.23143  4.49688
Hg    -3.14016  2.29329  4.72184
