31
Energy: -573019.3115939  eV PBE+vdW (tier 2 basis)
C    -2.51872  3.25797  0.66074
C    -1.42835  2.42002  1.21860
O    -0.54146  2.99570  1.93859
H    -3.09724  2.74161  -0.11155
H    -2.06406  4.16302  0.22385
H    -3.17370  3.62178  1.46795
N    -1.30703  1.09001  0.96232
C    -2.37196  0.09471  1.12457
C    -2.41706  -0.23429  2.65031
O    -1.35745  -0.10002  3.36593
H    -0.38661  0.71984  1.21126
H    -3.32598  0.54512  0.81962
C    -2.07872  -1.19844  0.32100
C    -2.07417  -1.07443  -1.17842
N    -1.30671  -1.92330  -1.97083
C    -2.79898  -0.31041  -2.06160
C    -1.54752  -1.69713  -3.26842
N    -2.44994  -0.71594  -3.33264
H    -2.82215  -1.95871  0.60920
H    -1.10942  -1.60196  0.65512
H    -0.66386  -2.64290  -1.64149
H    -3.54126  0.46183  -1.90454
H    -1.09178  -2.21405  -4.10814
H    -2.82559  -0.33690  -4.20314
N    -3.50000  -0.72668  3.22998
C    -4.75927  -1.18776  2.64940
H    -3.39696  -0.87742  4.24085
H    -5.58434  -0.78615  3.25445
H    -4.81131  -2.28608  2.70026
H    -4.87233  -0.85704  1.61387
Hg    -0.05108  1.76402  3.74989
