31
Energy: -573019.7070167  eV PBE+vdW (tier 2 basis)
C    0.13306  0.38571  0.22679
C    -0.01975  0.51184  1.69974
O    0.86362  1.01345  2.46043
H    -0.71142  -0.09169  -0.27706
H    1.03255  -0.21754  0.02170
H    0.31051  1.37870  -0.21158
N    -1.14380  0.12546  2.37358
C    -2.52298  0.00558  1.90090
C    -2.70587  -1.26087  0.98324
O    -3.24262  -1.14805  -0.11486
H    -1.02898  0.20408  3.38942
H    -3.11615  -0.15846  2.81244
C    -3.06545  1.29400  1.18388
C    -4.54547  1.43305  1.06735
N    -5.33181  0.76897  0.13789
C    -5.40680  2.29709  1.72829
C    -6.59819  1.19171  0.21338
N    -6.65012  2.12142  1.18049
H    -2.62678  1.33779  0.17542
H    -2.70044  2.15945  1.75198
H    -4.98239  0.04626  -0.49635
H    -5.21897  3.02111  2.51398
H    -7.43133  0.85038  -0.39508
H    -7.49621  2.62776  1.44969
N    -2.27079  -2.43702  1.49198
C    -2.49488  -3.71612  0.83475
H    -1.94650  -2.45922  2.45850
H    -2.51878  -3.57196  -0.25121
H    -3.45656  -4.15945  1.14899
H    -1.69919  -4.40922  1.13687
Hg    3.18095  0.98634  2.25335
