31
Energy: -573019.6873462  eV PBE+vdW (tier 2 basis)
C    -0.05113  1.31716  0.64237
C    -0.07255  0.92102  2.08476
O    0.92145  1.31961  2.77892
H    0.26323  2.36610  0.55194
H    -1.02025  1.17505  0.14887
H    0.71745  0.71635  0.12947
N    -1.11083  0.18810  2.53888
C    -1.42020  -0.18913  3.92718
C    -0.56419  -1.39383  4.42614
O    0.38013  -1.16228  5.27697
H    -1.79067  -0.07319  1.82635
H    -1.10066  0.64050  4.57699
C    -2.93998  -0.38268  4.16437
C    -3.75573  0.87279  4.32992
N    -4.99584  0.83415  4.96318
C    -3.58855  2.17729  3.93740
C    -5.55900  2.04820  4.96129
N    -4.71105  2.87167  4.34322
H    -3.04845  -0.98246  5.08177
H    -3.37619  -0.99389  3.35861
H    -5.44087  0.01556  5.37763
H    -2.78693  2.67178  3.40453
H    -6.52334  2.31109  5.38727
H    -4.88241  3.86730  4.19628
N    -0.75103  -2.65249  4.07856
C    -1.79296  -3.29599  3.27209
H    -0.07785  -3.29432  4.51382
H    -2.15043  -2.63321  2.47933
H    -2.62752  -3.62424  3.90753
H    -1.34823  -4.18504  2.80943
Hg    1.60257  0.58704  4.75492
