31
Energy: -573019.6896641  eV PBE+vdW (tier 2 basis)
C    0.41660  0.68171  -0.39093
C    0.19496  0.84807  1.07777
O    1.03565  1.60898  1.66946
H    -0.37926  0.10151  -0.87407
H    1.39146  0.19799  -0.55403
H    0.47656  1.67621  -0.85895
N    -0.84077  0.20758  1.65754
C    -1.41719  0.42151  2.99780
C    -0.65928  -0.37930  4.09617
O    0.10754  0.27753  4.90485
H    -1.37714  -0.37660  1.01731
H    -1.23927  1.47511  3.26681
C    -2.95542  0.24890  2.91707
C    -3.75145  0.65046  4.12948
N    -5.14302  0.69021  4.06996
C    -3.43037  1.04145  5.40555
C    -5.64898  1.08533  5.24428
N    -4.61800  1.30067  6.06223
H    -3.21393  -0.78456  2.64151
H    -3.27944  0.88126  2.07379
H    -5.72258  0.46676  3.26092
H    -2.47783  1.16287  5.90573
H    -6.70199  1.20825  5.48245
H    -4.70819  1.61445  7.02957
N    -0.75497  -1.68019  4.28501
C    -1.59062  -2.69639  3.63477
H    -0.15976  -2.02389  5.04734
H    -1.74008  -2.47221  2.57508
H    -2.55474  -2.79741  4.15186
H    -1.06230  -3.65375  3.71205
Hg    1.34978  1.76049  3.82761
