18
Energy: -603547.013097 eV PBE+vdW (tier 2 basis)
N    -0.111548  0.298760  0.019240
C    0.000173  0.047209  1.495593
C    1.338590  -0.638052  1.771983
O    2.297117  -0.511466  0.931221
H    -0.798795  1.029334  -0.197992
H    0.791090  0.552064  -0.400908
H    0.047537  1.006410  2.037105
C    -1.227304  -0.751042  1.974686
C    -1.487197  -1.978742  1.098300
O    -0.983745  -2.042607  -0.051846
N    -2.268118  -2.939730  1.580829
H    -2.115219  -0.100406  1.940628
H    -1.089522  -1.029627  3.026871
H    -2.687013  -2.894858  2.503965
H    -2.521816  -3.721584  0.979851
O    1.509222  -1.279509  2.862355
H    -0.469788  -0.721192  -0.324636
Pb    3.741341  -1.697962  2.339756
