18
Energy: -603547.282592 eV PBE+vdW (tier 2 basis)
N    0.348643  -0.290788  -0.131300
C    0.085356  0.044347  1.328373
C    1.440679  0.366816  1.962300
O    2.479770  -0.051722  1.357983
H    -0.307497  -0.979020  -0.524389
H    0.299399  0.553269  -0.721684
H    -0.590187  0.907190  1.358745
C    -0.556715  -1.115526  2.126682
C    0.332197  -2.280597  2.593357
O    1.481207  -2.131955  3.096174
N    -0.199727  -3.494718  2.514068
H    -1.437075  -1.492901  1.588141
H    -0.947387  -0.655762  3.049097
H    -1.136995  -3.665724  2.161909
H    0.304878  -4.289465  2.905263
O    1.441363  0.819287  3.142143
H    1.326806  -0.645465  -0.189640
Pb    3.240713  -0.635982  3.600717
