18
Energy: -603545.499972 eV PBE+vdW (tier 2 basis)
N    -0.054035  -0.738256  0.133976
C    -0.043354  -0.070319  1.427207
C    1.380527  0.363212  1.808280
O    2.223553  -0.395427  2.290728
H    0.807856  -1.233127  -0.091891
H    -0.284001  -0.111481  -0.635113
H    -0.650686  0.839931  1.350720
C    -0.744672  -0.936185  2.522657
C    -0.278701  -2.356473  2.677743
O    -1.178925  -3.306813  2.834939
N    0.984957  -2.651231  2.685416
H    -1.813218  -0.957786  2.282057
H    -0.646342  -0.450659  3.509549
H    1.669451  -1.826129  2.563500
H    1.311549  -3.607030  2.824150
O    1.618921  1.623761  1.494054
H    2.556589  1.847790  1.682438
Pb    -2.798985  -4.652449  2.898924
