18
Energy: -603546.551024 eV PBE+vdW (tier 2 basis)
N    0.169005  1.041226  1.158094
C    -0.589858  -0.099088  1.499187
C    0.274101  -1.176484  2.183579
O    -0.198704  -1.934708  3.060115
H    0.646232  1.525799  1.914491
H    -2.160683  -2.277809  -1.625932
H    -1.414884  0.091366  2.267780
C    -1.266747  -0.660877  0.221410
C    -2.251160  -1.803860  0.368869
O    -2.824512  -2.104423  1.472174
N    -2.567443  -2.483537  -0.716260
H    -0.484602  -0.931568  -0.502291
H    -1.828510  0.173587  -0.233065
H    -0.257825  1.693287  0.504832
H    -3.275768  -3.215949  -0.672009
O    1.504184  -1.250891  1.774462
H    2.004958  -1.959036  2.241258
Pb    -2.458787  -1.818034  3.666308
