18
Energy: -603545.531457 eV PBE+vdW (tier 2 basis)
N    0.020234  0.078143  -0.458779
C    -0.390011  0.293655  0.892802
C    0.741499  0.549541  1.922497
O    0.537019  0.642018  3.128827
H    0.121311  0.915240  -1.026219
H    0.805194  -0.555107  -0.596127
H    -1.002263  1.209818  0.918929
C    -1.304879  -0.912223  1.330246
C    -2.283179  -0.704913  2.454329
O    -3.448351  -1.304483  2.381741
N    -1.991382  0.039401  3.480607
H    -0.680985  -1.782705  1.597347
H    -1.871504  -1.199368  0.436968
H    -0.995480  0.420807  3.526453
H    -2.646128  0.168966  4.250587
O    1.929887  0.681223  1.361489
H    2.602504  0.877047  2.050004
Pb    -5.246965  -2.411272  2.165449
