18
Energy: -603546.584418 eV PBE+vdW (tier 2 basis)
N    0.576042  0.666009  0.768186
C    -0.524904  -0.175351  1.184489
C    -0.060800  -1.015049  2.372175
O    0.393761  -2.195043  2.310690
H    0.739915  1.477778  1.361144
H    -3.591356  -0.576117  -0.549820
H    -1.328551  0.477644  1.554247
C    -1.024688  -0.971639  -0.048945
C    -2.200233  -1.888907  0.177925
O    -2.049421  -3.070884  0.663812
N    -3.415808  -1.484729  -0.127023
H    -0.200050  -1.571701  -0.464797
H    -1.261116  -0.215379  -0.808168
H    1.449322  0.184480  0.558864
H    -4.216600  -2.100377  0.017468
O    -0.050472  -0.349550  3.496625
H    0.382636  -0.847532  4.224948
Pb    -0.295678  -4.195654  1.460178
