18
Energy: -603547.034433 eV PBE+vdW (tier 2 basis)
N    -0.522074  0.460359  -0.065219
C    0.035673  0.078381  1.269154
C    1.554681  -0.122089  1.230312
O    2.262753  -0.224825  2.177847
H    -0.259755  1.428851  -0.285708
H    -1.547859  0.459500  -0.023932
H    -0.120829  0.899878  1.985694
C    -0.655699  -1.163432  1.868267
C    -0.455632  -2.476397  1.131670
O    -0.073788  -2.539093  -0.086507
N    -0.710305  -3.594687  1.781546
H    -1.740088  -0.973889  1.940199
H    -0.307113  -1.270016  2.905596
H    -0.996280  -3.605373  2.758023
H    -0.625226  -4.493191  1.306380
O    2.049824  -0.201508  -0.095219
H    3.027392  -0.305102  -0.045510
Pb    0.422202  -1.093241  -1.752950
