18
Energy: -603545.828234 eV PBE+vdW (tier 2 basis)
N    -0.286738  0.489238  -0.077815
C    -0.008656  0.164900  1.363795
C    1.413750  -0.438793  1.349497
O    2.134170  -0.315052  0.385124
H    0.642589  0.604468  -0.534647
H    -0.867273  1.323076  -0.214011
H    0.065291  1.109548  1.922679
C    -1.102913  -0.698657  2.019317
C    -1.513699  -1.926685  1.233963
O    -2.113964  -2.900406  1.973784
N    -1.333755  -1.983022  -0.024397
H    -2.006869  -0.092171  2.192468
H    -0.741602  -0.993446  3.012015
H    -0.747585  -0.383927  -0.479716
H    -1.651809  -2.833980  -0.496377
O    1.716532  -1.029395  2.506497
H    2.656867  -1.308132  2.482711
Pb    -3.106334  -4.445566  2.924112
