18
Energy: -603545.537783 eV PBE+vdW (tier 2 basis)
N    -0.139437  0.188611  -0.141243
C    -0.016751  -0.239194  1.260416
C    1.343561  0.008117  1.954130
O    1.719430  -0.664030  2.887387
H    0.646527  -0.131455  -0.713598
H    -0.161474  1.207905  -0.215756
H    -0.740231  0.359579  1.839219
C    -0.380913  -1.733212  1.437583
C    -1.698770  -2.131117  0.840232
O    -2.305253  -3.220176  1.273806
N    -2.198223  -1.415100  -0.117757
H    -0.363392  -1.978844  2.506841
H    0.389296  -2.376751  0.975320
H    -1.522514  -0.591988  -0.417163
H    -3.074538  -1.654373  -0.581504
O    1.985781  1.047952  1.412082
H    2.818047  1.206004  1.906496
Pb    -2.998147  -4.939930  2.281511
