18
Energy: -603545.868909 eV PBE+vdW (tier 2 basis)
N    -0.277948  0.525836  0.432812
C    -0.220890  0.088317  1.751532
C    0.970179  0.751466  2.482076
O    2.045297  0.990453  2.047282
H    -0.844134  0.017892  -0.239656
H    -0.148982  1.510770  0.220633
H    -1.168349  0.401435  2.381696
C    -0.144609  -1.458311  1.808037
C    -0.265316  -2.129003  3.159507
O    -0.891978  -1.605943  4.147264
N    0.254714  -3.330842  3.304514
H    0.787978  -1.767464  1.315467
H    -0.968958  -1.854391  1.189834
H    0.757051  -3.801491  2.554943
H    0.128639  -3.840432  4.179370
O    0.622110  1.047709  3.829084
H    1.404310  1.451705  4.268664
Pb    -1.631670  0.445880  4.640827
