18
Energy: -603545.717338 eV PBE+vdW (tier 2 basis)
N    1.041035  -0.270856  0.364283
C    0.087114  -0.497078  1.418031
C    -0.034912  0.781420  2.248088
O    -0.680291  1.750970  2.078838
H    0.720896  0.357505  -0.370996
H    1.989500  -0.042857  0.657764
H    -0.906857  -0.608686  0.959666
C    0.457960  -1.803163  2.166774
C    -0.470079  -2.183479  3.286557
O    -0.389352  -1.623972  4.447124
N    -1.399061  -3.094525  3.097165
H    1.478212  -1.727627  2.570776
H    0.484178  -2.585727  1.397608
H    -1.497598  -3.585481  2.210888
H    -2.035852  -3.352617  3.851919
O    1.056976  0.870142  3.374661
H    1.274469  1.828727  3.402162
Pb    0.828660  -0.117694  5.503690
