18
Energy: -603545.818537 eV PBE+vdW (tier 2 basis)
N    3.979315  1.345087  -0.520808
C    4.272109  1.432013  0.950742
C    5.797364  1.251632  1.090407
O    6.455389  0.791336  0.185240
H    4.132058  2.247006  -0.988749
H    4.642745  0.671027  -0.945479
H    3.965935  2.426327  1.298766
C    3.530490  0.337586  1.752094
C    2.044936  0.221255  1.467890
O    1.320791  -0.342833  2.473171
N    1.563588  0.586835  0.348522
H    3.691842  0.545484  2.816987
H    3.981848  -0.650626  1.558540
H    2.955937  1.059534  -0.605805
H    0.557334  0.453774  0.216314
O    6.219382  1.628652  2.295523
H    7.189086  1.491935  2.359456
Pb    0.068031  -1.236109  3.856872
