18
Energy: -603547.055866 eV PBE+vdW (tier 2 basis)
N    0.286980  -1.326980  -0.432197
C    0.309891  -0.850796  0.962191
C    1.681025  -0.915312  1.638208
O    1.785854  -0.638314  2.885356
H    0.693424  -0.653539  -1.085013
H    0.780508  -2.215133  -0.556697
H    0.054567  0.223006  0.946601
C    -0.778076  -1.587150  1.790139
C    -2.130489  -1.546518  1.101259
O    -2.196288  -1.533313  -0.177401
N    -3.241590  -1.562775  1.804845
H    -0.839964  -1.161523  2.798380
H    -0.512725  -2.651716  1.903781
H    -3.242550  -1.566999  2.820198
H    -4.142151  -1.591996  1.326072
O    2.719089  -1.210498  0.951140
H    -1.156911  -1.483723  -0.542266
Pb    4.095405  -0.854720  2.801404
