18
Energy: -603545.21588 eV PBE+vdW (tier 2 basis)
N    -0.852209  0.312785  0.397824
C    -0.498540  -0.065152  1.725307
C    1.014928  -0.350093  1.798592
O    1.726970  -0.468654  0.842205
H    -1.286682  1.221770  0.275427
H    -0.147055  0.101001  -0.308999
H    -0.747886  0.733628  2.439983
C    -1.336918  -1.363583  2.119818
C    -1.650017  -1.600905  3.562268
O    -2.805892  -2.127589  3.877808
N    -0.814029  -1.281348  4.517781
H    -0.821722  -2.257375  1.728250
H    -2.285496  -1.296393  1.573623
H    0.122283  -0.916663  4.270697
H    -1.043185  -1.435384  5.498017
O    1.438809  -0.468835  3.095770
H    2.405563  -0.636409  3.092553
Pb    -4.667923  -3.135801  4.133076
