20
Energy: -30968.0902595 eV PBE+vdW (tier 2 basis)
C    0.164400  -0.021311  -0.088192
C    -0.018508  0.419382  1.324614
O    1.052428  0.607262  2.072887
H    0.767549  0.717642  -0.634632
H    -0.792385  -0.142548  -0.605687
H    0.700940  -0.980427  -0.113571
N    -1.209670  0.611816  1.800663
C    -1.668745  1.031623  3.113064
C    -3.220131  1.032503  2.925828
O    -3.642047  0.705628  1.807228
H    -2.107462  0.472198  1.233200
H    -1.363188  0.320147  3.893430
H    -1.298765  2.035095  3.367431
N    -3.964299  1.381742  3.973341
C    -5.428764  1.427766  3.949202
H    -3.498773  1.628951  4.841406
H    -5.837398  0.723575  4.683301
H    -5.769095  1.149779  2.948700
H    -5.774027  2.441050  4.184875
Ca    2.901940  0.754127  2.784913
