20
Energy: -30967.9595667 eV PBE+vdW (tier 2 basis)
C    0.241108  -0.349859  0.094890
C    0.000163  0.259595  1.440819
O    1.027782  0.593649  2.195685
H    -0.216163  0.267420  -0.690952
H    -0.224605  -1.343567  0.037115
H    1.310049  -0.449251  -0.112664
N    -1.217927  0.450479  1.845771
C    -1.753144  1.009010  3.075268
C    -3.289404  0.907550  2.829400
O    -3.647305  0.421243  1.746799
H    -2.082811  0.194498  1.266297
H    -1.450532  0.422314  3.954551
H    -1.440478  2.053446  3.217894
N    -4.117184  1.341995  3.780576
C    -3.751476  1.922034  5.071068
H    -5.105822  1.247151  3.556668
H    -4.672252  2.169174  5.606129
H    -3.177976  2.851026  4.950395
H    -3.188085  1.211065  5.690411
Ca    2.842466  0.918161  2.941823
