20
Energy: -30969.1121542 eV PBE+vdW (tier 2 basis)
C    -1.864273  1.288092  -0.056343
C    -0.567275  0.930570  0.576807
O    0.529343  1.407747  0.135890
H    -1.931326  2.388116  -0.034001
H    -2.737208  0.879898  0.459816
H    -1.882634  1.007301  -1.118429
N    -0.519660  0.107220  1.656140
C    -1.183510  -1.181667  1.671064
C    -0.395928  -2.172419  0.771954
O    0.537231  -1.732933  0.016211
H    0.371690  0.133987  2.153981
H    -1.247766  -1.557963  2.700431
H    -2.210443  -1.092634  1.291106
N    -0.737227  -3.441490  0.822693
C    -0.151480  -4.539239  0.046683
H    -1.486205  -3.695974  1.466942
H    -0.942452  -5.036671  -0.526954
H    0.305329  -5.264198  0.731156
H    0.605012  -4.143515  -0.633256
Ca    1.791782  -0.127229  -0.694891
