20
Energy: -30968.0914995 eV PBE+vdW (tier 2 basis)
C    -2.072491  0.329639  0.674251
C    -0.697776  0.423015  1.234819
O    -0.044188  1.549867  1.072871
H    -2.544596  -0.640389  0.843651
H    -2.009686  0.500511  -0.411898
H    -2.711580  1.104054  1.113755
N    -0.025741  -0.612752  1.714789
C    -0.679200  -1.696200  2.425326
C    -1.479453  -1.052352  3.609725
O    -1.715118  0.160209  3.565407
H    0.939709  -0.422478  1.980773
H    -1.372569  -2.238730  1.769599
H    0.085690  -2.405686  2.759141
N    -1.874664  -1.900272  4.562498
C    -2.686784  -1.513170  5.717164
H    -1.598340  -2.875388  4.490325
H    -2.103752  -1.608458  6.641234
H    -3.570520  -2.158222  5.780280
H    -3.001076  -0.474230  5.590826
Ca    0.458134  3.473031  1.046464
