20
Energy: -30968.1664629 eV PBE+vdW (tier 2 basis)
C    0.032586  0.366167  0.184560
C    -0.169738  0.466989  1.654507
O    0.896446  0.578982  2.426127
H    0.571782  1.254507  -0.174207
H    -0.907523  0.277549  -0.366184
H    0.659862  -0.508026  -0.041098
N    -1.332127  0.451978  2.232371
C    -2.677468  0.344007  1.684761
C    -3.551104  0.398823  2.969001
O    -2.950956  0.509356  4.053486
H    -1.485093  0.523826  3.289448
H    -2.910064  1.178279  1.008084
H    -2.822421  -0.601813  1.143969
N    -4.873859  0.325226  2.835790
C    -5.626962  0.196276  1.587099
H    -5.393600  0.366373  3.710028
H    -5.373534  -0.730830  1.056408
H    -5.467231  1.059631  0.927884
H    -6.690890  0.158169  1.835070
Ca    2.482895  0.751530  3.600896
