20
Energy: -30968.1601686 eV PBE+vdW (tier 2 basis)
C    0.052699  0.392477  0.086960
C    -0.064048  0.622136  1.554776
O    1.011440  0.927036  2.253726
H    1.082614  0.520081  -0.255154
H    -0.595718  1.091535  -0.461322
H    -0.285261  -0.622922  -0.167472
N    -1.195740  0.533610  2.186905
C    -2.524229  0.218588  1.685954
C    -3.381895  0.289842  2.979965
O    -2.784743  0.570324  4.034474
H    -1.333208  0.687019  3.235932
H    -2.861991  0.951081  0.938310
H    -2.561612  -0.782994  1.233131
N    -4.688405  0.049618  2.885810
C    -5.437761  -0.279844  1.672352
H    -5.197840  0.112032  3.764838
H    -5.402440  0.538007  0.940593
H    -6.483543  -0.433943  1.950759
H    -5.074198  -1.208166  1.212599
Ca    2.616876  1.387482  3.322863
