17
Energy: -101135.832443 eV PBE+vdW (tier 2 basis)
N    -0.323043  0.249253  0.222958
C    -0.008590  -0.267878  1.616160
C    1.520540  -0.183244  1.772950
O    1.988406  0.007219  2.924108
H    0.453238  -0.071046  -0.392908
H    -1.226185  -0.076647  -0.150000
H    -0.513367  0.375117  2.344995
C    -0.487010  -1.744286  1.733307
C    0.304532  -2.621294  2.714090
O    1.527157  -2.756442  2.628937
O    -0.337714  -3.305239  3.633824
H    -0.348229  -2.249090  0.762288
H    -1.560487  -1.762215  1.961498
O    2.204861  -0.488175  0.743984
H    -0.331913  1.280178  0.199566
H    -1.304214  -3.162155  3.642560
Sr    3.665017  -1.635059  2.395683
