17
Energy: -101134.110732 eV PBE+vdW (tier 2 basis)
N    0.327768  0.132693  -0.094918
C    -0.325910  0.044951  1.142729
C    0.665959  0.460809  2.232609
O    1.847810  0.394412  2.192037
H    -0.247607  0.091143  -0.930414
H    1.226023  -0.335048  -0.190128
H    -1.181710  0.735173  1.162608
C    -0.935044  -1.457674  1.472736
C    -1.501762  -1.445034  2.820713
O    -0.885141  -1.714712  3.866013
O    -2.702597  -0.805953  3.053409
H    -0.117316  -2.183740  1.415190
H    -1.674233  -1.653455  0.687270
O    0.031660  1.055647  3.413825
H    0.777545  1.576259  3.786649
H    -3.239614  -0.647444  2.251518
Sr    -1.479372  0.083175  5.254609
