17
Energy: -101135.016796 eV PBE+vdW (tier 2 basis)
N    0.042727  0.037994  0.132411
C    -0.441953  -0.087306  1.500518
C    0.750420  -0.350795  2.399480
O    1.281696  -1.504298  2.558341
H    0.704915  -0.675926  -0.166270
H    0.413762  0.961697  -0.085768
H    -0.844925  0.888411  1.801277
C    -1.605746  -1.094220  1.630082
C    -1.387538  -2.515578  1.177061
O    -2.338172  -3.175830  0.669412
O    -0.231202  -3.110766  1.340416
H    -2.452172  -0.696969  1.055829
H    -1.947707  -1.150031  2.679406
O    1.303177  0.683798  2.945851
H    2.132458  0.460335  3.427296
H    0.714646  -2.246119  2.068435
Sr    -1.197385  -5.190397  0.449225
