17
Energy: -101135.668432 eV PBE+vdW (tier 2 basis)
N    1.738680  0.737156  0.385617
C    1.025035  -0.320600  1.204748
C    0.531387  0.470829  2.435413
O    0.640717  1.679269  2.476822
H    2.762983  0.653284  0.427713
H    1.454997  0.748610  -0.601335
H    0.143730  -0.647049  0.633690
C    1.911913  -1.530108  1.518120
C    1.130006  -2.790998  1.874800
O    1.706781  -3.671977  2.593829
O    -0.048143  -2.971194  1.410000
H    2.633170  -1.325101  2.319998
H    2.496867  -1.803660  0.623329
O    -0.001337  -0.311836  3.367398
H    -0.309399  0.249127  4.111897
H    1.467695  1.644219  0.857214
Sr    -0.118081  -5.122973  2.413745
