17
Energy: -101134.936188 eV PBE+vdW (tier 2 basis)
N    0.000361  -0.699962  0.210577
C    0.229054  -0.260697  1.621916
C    1.717892  -0.401895  1.947688
O    2.434310  -1.167310  1.274833
H    -0.981055  -1.084615  0.217927
H    -0.065881  0.143111  -0.370887
H    -0.071493  0.792647  1.744179
C    -0.570021  -1.122743  2.639329
C    -2.041704  -1.277604  2.257724
O    -2.407777  -1.475590  1.106022
O    -2.834566  -1.214081  3.314866
H    -0.489203  -0.696406  3.646343
H    -0.153576  -2.142095  2.695108
O    2.261740  0.229834  2.951833
H    1.657198  0.839985  3.421712
H    -3.766040  -1.371002  3.045249
Sr    1.851040  -2.245110  -0.693515
