17
Energy: -101134.960293 eV PBE+vdW (tier 2 basis)
N    0.213699  -0.107581  -0.018063
C    0.356647  -0.219161  1.392218
C    1.620476  -1.018105  1.749724
O    2.426636  -1.413187  0.867326
H    -0.069177  -0.953186  -0.507666
H    -0.335769  0.690129  -0.325102
H    0.552261  0.793609  1.788437
C    -0.921329  -0.781069  2.157097
C    -1.025655  -0.442047  3.603390
O    -0.046364  -0.514432  4.421148
O    -2.175942  -0.029269  4.028012
H    -0.961901  -1.879470  2.068258
H    -1.812652  -0.393249  1.650491
O    1.891642  -1.268273  3.008010
H    0.821701  -0.843326  3.919129
H    -2.171571  0.170263  4.992349
Sr    4.052498  -2.207526  2.338317
