17
Energy: -101134.916545 eV PBE+vdW (tier 2 basis)
N    -0.154358  -0.687654  0.038108
C    0.263267  -0.451603  1.398406
C    1.421253  -1.358704  1.764999
O    1.825666  -1.534672  2.959843
H    0.607109  -0.614643  -0.636275
H    -0.886911  -0.038846  -0.247650
H    0.684042  0.565274  1.600748
C    -0.980170  -0.648007  2.314118
C    -0.904986  -0.234095  3.761675
O    -1.924581  0.231691  4.345423
O    0.194537  -0.386368  4.457345
H    -1.293813  -1.705937  2.285734
H    -1.811790  -0.088461  1.867744
O    2.049719  -1.923273  0.790651
H    2.817843  -2.457931  1.096865
H    1.199436  -1.038962  3.662817
Sr    -0.968264  0.425189  6.465451
