17
Energy: -101134.930459 eV PBE+vdW (tier 2 basis)
N    -0.525614  -1.467313  0.789072
C    0.200509  -0.323975  1.286080
C    1.547720  -0.939093  1.654441
O    1.784339  -1.543128  2.756619
H    -0.924775  -1.377138  -0.138855
H    -1.125043  -1.969022  1.433992
H    0.407723  0.348740  0.443514
C    -0.470666  0.542914  2.377605
C    -0.910626  -0.099944  3.671346
O    -1.908508  0.360152  4.299039
O    -0.253993  -1.103717  4.194174
H    -1.353541  1.024453  1.936681
H    0.203086  1.370915  2.665363
O    2.458018  -0.904983  0.740011
H    3.258349  -1.424681  0.981913
H    0.974729  -1.444363  3.408973
Sr    -1.708706  -1.018819  6.168035
