17
Energy: -101134.967767 eV PBE+vdW (tier 2 basis)
N    -0.364152  0.084086  -0.047138
C    -0.145281  -0.082967  1.376258
C    1.347527  0.227006  1.545265
O    1.737282  1.393401  1.825646
H    -0.262282  -0.748973  -0.621007
H    -1.220499  0.578694  -0.281709
H    -0.664707  0.731329  1.896891
C    -0.648950  -1.398252  2.034142
C    -0.127397  -2.686253  1.481033
O    1.057039  -2.854376  1.046870
O    -0.957030  -3.679155  1.472145
H    -1.745280  -1.427447  1.980028
H    -0.402640  -1.408925  3.112568
O    2.250807  -0.693225  1.292716
H    1.643420  -1.953298  1.125470
H    -0.543912  -4.511172  1.145355
Sr    3.991440  1.034155  1.372556
