17
Energy: -101135.444421 eV PBE+vdW (tier 2 basis)
N    -1.715285  0.567952  1.747020
C    -0.786703  -0.493164  2.243095
C    0.594782  -0.424090  1.584130
O    1.553435  -1.030491  1.940718
H    -2.652759  0.373228  2.116307
H    -1.452611  1.452560  2.196848
H    -0.577442  -0.352975  3.315936
C    -1.361460  -1.920272  2.110997
C    -1.704341  -2.362053  0.703362
O    -1.688954  -1.578018  -0.262848
O    -2.049494  -3.602258  0.472641
H    -2.268199  -2.015985  2.732701
H    -0.634056  -2.624118  2.545946
O    0.639209  0.448773  0.465009
H    1.584126  0.481269  0.196815
H    -2.025739  -4.181386  1.261769
Sr    -1.500507  0.658029  -0.856447
