17
Energy: -101135.01512 eV PBE+vdW (tier 2 basis)
N    -0.456887  0.398179  0.318781
C    -0.286942  -0.474489  1.526522
C    1.165407  -0.260711  2.031605
O    2.005078  0.229718  1.310178
H    -0.572592  1.350941  0.690573
H    0.508423  0.451629  -0.068107
H    -0.992154  -0.152072  2.304188
C    -0.466930  -1.991613  1.267358
C    -1.848441  -2.409410  0.828304
O    -2.450707  -1.811199  -0.089334
O    -2.458127  -3.428597  1.370775
H    -0.172344  -2.523177  2.182058
H    0.231939  -2.324512  0.479575
O    1.321350  -0.701174  3.277066
H    2.250657  -0.568018  3.564071
H    -1.946608  -3.864529  2.082352
Sr    -2.293122  0.006035  -1.445966
