17
Energy: -101135.803731 eV PBE+vdW (tier 2 basis)
N    0.798495  -0.598438  0.192731
C    0.512222  -0.339968  1.630405
C    1.825958  -0.527034  2.416811
O    2.728453  -1.247038  1.981352
H    -0.088222  -0.679365  -0.315277
H    1.242470  0.237362  -0.203391
H    0.166371  0.696622  1.782308
C    -0.616302  -1.249216  2.183335
C    -0.440335  -2.752267  2.019902
O    0.488932  -3.261399  1.380660
O    -1.325116  -3.556686  2.559574
H    -1.563520  -0.969617  1.690753
H    -0.775917  -1.028050  3.250466
O    1.985831  0.059569  3.579685
H    1.272314  0.682606  3.823078
H    -2.038307  -3.106091  3.055046
Sr    2.423702  -2.745503  0.151618
