17
Energy: -101134.17098 eV PBE+vdW (tier 2 basis)
N    -0.398894  0.064508  0.058376
C    -0.126642  -0.000222  1.455864
C    1.281211  0.483047  1.843438
O    2.160102  0.830654  1.124058
H    0.386682  -0.207454  -0.532380
H    -0.753703  0.967445  -0.247299
H    -0.846227  0.645863  1.983416
C    -0.358183  -1.495899  1.933941
C    -0.742821  -1.728904  3.346762
O    -1.653166  -2.512349  3.705622
O    -0.128038  -1.087800  4.363790
H    0.548588  -2.092679  1.728235
H    -1.152343  -1.910950  1.301115
O    1.453967  0.474325  3.259650
H    2.367409  0.763797  3.469087
H    0.613864  -0.408638  4.014525
Sr    -1.629985  -2.361945  6.031987
