17
Energy: -101136.087021 eV PBE+vdW (tier 2 basis)
N    0.063466  -1.390010  0.236296
C    -0.189769  -0.185865  1.128988
C    1.154525  0.551070  1.253302
O    1.160868  1.675063  1.817577
H    -0.196438  -1.197998  -0.741606
H    -0.435129  -2.240951  0.528319
H    -0.943618  0.444816  0.644514
C    -0.697778  -0.572058  2.534138
C    0.321916  -1.082423  3.548651
O    -0.157576  -2.092310  4.243326
O    1.441052  -0.592045  3.750970
H    -1.537640  -1.276560  2.475086
H    -1.111696  0.349920  2.975567
O    2.201021  -0.114716  0.954123
H    1.099972  -1.538013  0.266038
H    0.460533  -2.360241  4.958546
Sr    3.157291  0.990318  2.937165
