17
Energy: -101135.383362 eV PBE+vdW (tier 2 basis)
N    -0.162159  -0.186229  -0.095583
C    0.066652  0.162242  1.356488
C    1.584303  0.502071  1.421122
O    2.266557  0.337242  0.431701
H    0.732334  0.095254  -0.571607
H    -0.977291  0.275996  -0.513102
H    -0.523276  1.059057  1.590633
C    -0.355144  -0.984502  2.297279
C    0.288298  -2.331905  2.006695
O    0.716740  -3.048972  2.960327
O    0.359054  -2.748671  0.784377
H    -1.446922  -1.125101  2.234196
H    -0.147420  -0.714537  3.339486
O    2.094851  0.931271  2.567382
H    1.433231  1.130377  3.256678
H    -0.225216  -1.222291  -0.186759
Sr    1.377407  -4.806303  1.553687
