17
Energy: -101135.31416 eV PBE+vdW (tier 2 basis)
N    0.187253  0.115636  0.033748
C    -0.125713  0.067105  1.433247
C    1.059482  -0.180561  2.393115
O    1.131645  0.313664  3.541653
H    0.766333  0.909068  -0.234168
H    0.589825  -0.741125  -0.344458
H    -0.525163  1.052217  1.722612
C    -1.251373  -0.983730  1.642614
C    -2.065102  -0.883412  2.905319
O    -1.761997  -0.145066  3.865620
O    -3.155594  -1.598483  3.032225
H    -0.854302  -2.011351  1.571122
H    -1.923002  -0.865943  0.774827
O    2.007807  -0.932041  1.896280
H    2.756688  -1.039965  2.522545
H    -3.363938  -2.144801  2.246822
Sr    -0.324850  0.998790  5.237876
