17
Energy: -101134.052654 eV PBE+vdW (tier 2 basis)
N    -0.471228  0.456237  0.238126
C    -0.073328  -0.086303  1.501113
C    1.411168  0.196546  1.716022
O    2.135550  0.809286  0.908290
H    -0.275678  -0.143959  -0.561339
H    -1.448277  0.738736  0.219229
H    -0.575077  0.504218  2.291150
C    -0.431670  -1.606605  1.752237
C    -0.667598  -2.029002  3.182090
O    -1.600424  -2.605569  3.638264
O    0.421361  -1.638323  4.024535
H    0.324451  -2.269984  1.303611
H    -1.372718  -1.794057  1.223304
O    2.027586  -0.197415  2.846697
H    1.397097  -0.799889  3.478012
H    0.231870  -1.902299  4.949248
Sr    4.166663  0.988765  2.046962
