17
Energy: -101135.559829 eV PBE+vdW (tier 2 basis)
N    0.347516  -1.057983  -0.137323
C    0.249062  -0.168995  1.089601
C    1.589504  -0.066043  1.844493
O    1.663564  0.435196  2.931070
H    1.002326  -0.670498  -0.830415
H    0.690490  -1.999030  0.101109
H    0.026286  0.836831  0.702859
C    -0.873276  -0.635235  2.020237
C    -2.262008  -0.641236  1.416066
O    -3.271754  -0.556432  2.181839
O    -2.419186  -0.760382  0.135760
H    -0.871033  0.010334  2.908595
H    -0.675739  -1.651030  2.405795
O    2.593714  -0.580867  1.103414
H    3.440801  -0.472323  1.586731
H    -0.612735  -1.126980  -0.536418
Sr    -4.829534  -0.654328  0.461587
