17
Energy: -101134.19061 eV PBE+vdW (tier 2 basis)
N    0.275595  -0.362482  -0.115290
C    -0.021717  0.007950  1.237013
C    1.225236  0.338360  2.077089
O    2.363939  0.207133  1.747963
H    0.349520  0.443424  -0.732963
H    1.138877  -0.902246  -0.193981
H    -0.656963  0.907359  1.226223
C    -0.847316  -1.170254  1.893283
C    -1.771841  -0.837087  3.016113
O    -2.926050  -1.387543  3.090186
O    -1.473492  0.006490  3.944319
H    -0.153492  -1.950044  2.255604
H    -1.426575  -1.628359  1.083180
O    0.861675  0.826419  3.339602
H    1.670660  1.016455  3.860195
H    -0.523549  0.394920  3.819204
Sr    -4.923104  -2.022421  3.724924
