17
Energy: -101135.492652 eV PBE+vdW (tier 2 basis)
N    -0.436227  -1.544154  0.769386
C    -0.151345  -0.152918  1.206507
C    0.910912  -0.156041  2.318746
O    0.735012  0.294813  3.464697
H    -0.836692  -1.541815  -0.173531
H    0.403201  -2.127905  0.728235
H    0.274138  0.459506  0.392694
C    -1.474013  0.477088  1.690824
C    -1.987275  -0.316237  2.873333
O    -2.249223  0.245614  3.972243
O    -2.038316  -1.600268  2.757706
H    -2.205322  0.436213  0.869336
H    -1.350613  1.531916  1.956040
O    2.042068  -0.681673  1.915895
H    2.733814  -0.667984  2.613091
H    -1.505751  -1.852606  1.858782
Sr    -0.621370  0.879449  5.401016
