17
Energy: -101135.828068 eV PBE+vdW (tier 2 basis)
N    -0.498751  0.328870  0.296730
C    0.036200  0.024716  1.674344
C    1.566036  -0.104872  1.564478
O    2.155381  0.431422  0.563461
H    -0.589063  -0.639779  -0.157226
H    0.179962  0.899680  -0.228477
H    -0.144707  0.898785  2.318661
C    -0.664262  -1.201569  2.274490
C    -0.702916  -2.382818  1.320547
O    -0.971793  -3.521630  1.931132
O    -0.524850  -2.266853  0.106405
H    -1.701567  -0.954702  2.551247
H    -0.166262  -1.487039  3.209254
O    2.205448  -0.688651  2.492750
H    -1.409160  0.803307  0.318363
H    -1.065011  -4.242856  1.271556
Sr    4.285316  -0.182010  1.477283
