17
Energy: -101135.24965 eV PBE+vdW (tier 2 basis)
N    0.454228  0.006976  0.078896
C    -0.029673  0.029665  1.427082
C    1.133522  -0.224827  2.393112
O    1.226356  0.314170  3.517863
H    -0.134279  0.510802  -0.579661
H    0.701464  -0.910133  -0.287144
H    -0.373590  1.052542  1.639773
C    -1.229809  -0.947389  1.739879
C    -2.082404  -0.617523  2.938604
O    -1.694584  0.122054  3.867822
O    -3.294685  -1.105792  3.042510
H    -0.867758  -1.983541  1.856195
H    -1.864796  -0.958175  0.840221
O    2.019473  -1.074175  1.949460
H    2.764730  -1.191870  2.578140
H    -3.556770  -1.673182  2.289215
Sr    -0.153862  1.212402  5.171981
