34
Energy: -109019.73006 eV PBE+vdW (tier 2 basis)
C    -0.188591  0.797345  1.197954
C    -0.489522  0.398751  2.602356
O    -0.274861  1.181822  3.570311
H    -0.708985  1.738098  0.974227
H    -0.474140  0.039318  0.461300
H    0.887364  1.001387  1.107118
N    -1.009214  -0.844721  2.825692
C    -1.298510  -1.195310  4.205137
C    -0.091249  -1.788503  4.952802
O    0.489115  -1.020774  5.780436
H    -1.178608  -1.466499  2.040617
H    -1.323372  -0.183804  4.592809
C    -2.711100  -1.670696  4.670366
C    -3.029038  -0.724221  5.822085
C    -2.494145  -0.937663  7.105613
C    -3.599974  0.533576  5.554044
C    -2.492205  0.071618  8.075145
C    -3.617616  1.553060  6.512617
C    -3.066277  1.327841  7.790824
O    -3.041137  2.251135  8.777077
H    -2.724264  -2.722080  4.980588
H    -3.431215  -1.553392  3.850321
H    -2.061714  -1.905442  7.362542
H    -4.039704  0.732798  4.575386
H    -2.115386  -0.118675  9.080312
H    -4.104074  2.503081  6.283933
H    -3.614485  3.011322  8.573382
N    0.326054  -3.028212  4.747535
C    -0.201133  -4.017253  3.809812
H    1.150490  -3.296535  5.287284
H    0.496846  -4.161256  2.975139
H    -1.172721  -3.701466  3.419265
H    -0.335005  -4.974437  4.326612
Sr    -0.259619  1.221789  6.030361
