34
Energy: -109020.774218 eV PBE+vdW (tier 2 basis)
C    0.592428  2.947865  2.797875
C    0.172243  1.580564  3.244061
O    0.789824  0.563317  2.843064
H    1.625085  3.124029  3.129306
H    -0.044540  3.754491  3.174983
H    0.601796  2.978338  1.700565
N    -0.883146  1.506378  4.083962
C    -1.523714  0.340126  4.731918
C    -0.520820  -0.486421  5.558685
O    0.239289  -1.333987  5.014533
H    -1.299216  2.400574  4.326625
H    -2.215305  0.804181  5.444246
C    -2.449655  -0.519343  3.821076
C    -1.867766  -1.435616  2.767726
C    -1.546854  -0.973171  1.478195
C    -1.696799  -2.813610  3.019247
C    -1.036313  -1.825782  0.492360
C    -1.190300  -3.684184  2.050765
C    -0.873805  -3.201746  0.761528
O    -0.423675  -4.099982  -0.131046
H    -3.139796  0.188639  3.340050
H    -3.067808  -1.120360  4.503710
H    -1.698471  0.076404  1.226004
H    -1.966746  -3.220649  3.994402
H    -0.819512  -1.432833  -0.502410
H    -1.095060  -4.751470  2.250682
H    -0.356773  -3.723990  -1.027199
N    -0.487458  -0.308701  6.877496
C    -1.263152  0.619185  7.707795
H    0.184259  -0.906446  7.358578
H    -0.908750  0.522206  8.737725
H    -2.332552  0.373535  7.695523
H    -1.108703  1.659392  7.396718
Sr    1.002765  -1.752932  2.837257
