34
Energy: -109019.387398 eV PBE+vdW (tier 2 basis)
C    0.734449  -2.984099  1.837023
C    0.514231  -1.815009  2.737045
O    1.490701  -1.069739  3.086243
H    1.433084  -3.680745  2.321482
H    1.209418  -2.646855  0.906303
H    -0.189132  -3.519999  1.595195
N    -0.713503  -1.554075  3.187566
C    -0.987438  -0.489812  4.156665
C    -2.127697  -0.733382  5.178487
O    -1.886156  -0.357640  6.322549
H    -1.466058  -2.172157  2.895925
H    -0.119693  -0.489256  4.826583
C    -1.109969  0.927088  3.508933
C    0.045099  1.842892  3.843119
C    0.720739  2.577643  2.850576
C    0.463035  2.021711  5.183831
C    1.773278  3.454053  3.164856
C    1.509606  2.888433  5.514981
C    2.157667  3.645513  4.510466
O    3.125333  4.485083  4.912451
H    -2.035773  1.402151  3.866170
H    -1.212939  0.829236  2.421047
H    0.417104  2.482360  1.806471
H    -0.059715  1.490520  5.985213
H    2.250423  4.030579  2.369801
H    1.794079  3.046852  6.555903
H    3.418806  5.081791  4.199958
N    -3.312875  -1.261027  4.797110
C    -3.797034  -1.593530  3.462609
H    -3.968050  -1.363624  5.570065
H    -3.572031  -2.634826  3.178353
H    -3.405590  -0.901735  2.705698
H    -4.886736  -1.487568  3.447039
Sr    2.685338  0.684173  3.869282
