34
Energy: -109019.423729 eV PBE+vdW (tier 2 basis)
C    1.207588  -3.244215  3.312926
C    0.725347  -1.879521  3.679335
O    1.534744  -1.007711  4.143939
H    0.416338  -3.887376  2.914068
H    1.640005  -3.720652  4.203939
H    2.011421  -3.163911  2.569161
N    -0.562040  -1.581919  3.527421
C    -1.182356  -0.301801  3.892130
C    -2.722425  -0.516579  4.098104
O    -3.514610  0.124081  3.421656
H    -1.167241  -2.299928  3.133291
H    -0.742341  -0.000915  4.856485
C    -0.958301  0.798642  2.830861
C    0.137373  1.791737  3.105744
C    1.116226  2.091324  2.135163
C    0.182982  2.541657  4.305909
C    2.087741  3.086955  2.333379
C    1.146313  3.531944  4.527408
C    2.094115  3.844807  3.524761
O    2.958643  4.837418  3.793990
H    -1.925410  1.326898  2.751282
H    -0.805887  0.330441  1.850500
H    1.108296  1.555391  1.184426
H    -0.575534  2.382468  5.074588
H    2.799167  3.311224  1.535909
H    1.134311  4.128464  5.440364
H    3.467521  5.109093  3.008447
N    -3.102656  -1.427686  5.028536
C    -2.303091  -2.151799  6.010184
H    -4.113692  -1.536043  5.082748
H    -2.911603  -2.313724  6.906084
H    -1.423933  -1.571520  6.316178
H    -1.974371  -3.134826  5.642785
Sr    2.610359  0.963583  4.353298
