34
Energy: -109019.956322 eV PBE+vdW (tier 2 basis)
C    -2.848180  -1.369519  1.189252
C    -1.618283  -0.990250  1.947406
O    -0.468556  -1.358490  1.535867
H    -2.792860  -0.915789  0.189176
H    -3.771710  -1.042711  1.677562
H    -2.876041  -2.456970  1.044484
N    -1.757245  -0.253516  3.048969
C    -0.705391  0.404965  3.831145
C    -0.004255  -0.584802  4.790129
O    0.741372  -1.489996  4.291216
H    -2.702388  0.023386  3.339839
H    0.094213  0.694639  3.130343
C    -1.298020  1.700636  4.452688
C    -2.766795  1.666398  4.833191
C    -3.356244  0.661352  5.627069
C    -3.592589  2.719243  4.406540
C    -4.698372  0.709048  5.985028
C    -4.934455  2.787559  4.764616
C    -5.499863  1.781631  5.563007
O    -6.790787  1.770050  5.954721
H    -1.165558  2.493257  3.704921
H    -0.656984  2.012654  5.293622
H    -2.780384  -0.196109  5.982315
H    -3.173635  3.516949  3.791362
H    -5.144350  -0.069955  6.601185
H    -5.543940  3.625920  4.424430
H    -7.257608  2.562139  5.637861
N    -0.151924  -0.445912  6.093489
C    0.476431  -1.272974  7.122481
H    -0.754539  0.309514  6.414175
H    -0.298669  -1.776281  7.713247
H    1.073935  -0.637364  7.786785
H    1.118199  -2.017422  6.647596
Sr    1.433473  -2.319280  2.274285
