34
Energy: -109019.747646 eV PBE+vdW (tier 2 basis)
C    0.334000  -1.170021  1.419653
C    -0.875140  -0.296333  1.253265
O    -2.001708  -0.708960  1.024983
H    0.349707  -1.914164  0.614832
H    0.239230  -1.724712  2.363704
H    1.280270  -0.617111  1.426714
N    -0.652220  1.095054  1.359268
C    -1.823077  1.939868  1.430387
C    -1.940903  2.893776  0.246471
O    -2.944159  3.686672  0.174166
H    0.203081  1.398381  1.818985
H    -2.652557  1.213956  1.292848
C    -1.976507  2.643862  2.805649
C    -3.354609  3.167229  3.138698
C    -4.487634  2.324895  3.129335
C    -3.554123  4.506010  3.539243
C    -5.758756  2.789170  3.496590
C    -4.815255  4.989848  3.911151
C    -5.932856  4.124949  3.927006
O    -7.101389  4.645454  4.333740
H    -1.241043  3.454641  2.904473
H    -1.712010  1.889267  3.561527
H    -4.382244  1.274664  2.849372
H    -2.701674  5.186324  3.581589
H    -6.601896  2.095452  3.508054
H    -4.940777  6.016435  4.257226
H    -7.787340  3.964625  4.459591
N    -1.021258  2.830839  -0.691939
C    -0.985823  3.597980  -1.932235
H    -0.303940  2.120828  -0.525847
H    -0.012211  4.092222  -2.027877
H    -1.777394  4.350531  -1.918706
H    -1.129531  2.927027  -2.788352
Sr    -4.925253  4.321341  1.030436
