34
Energy: -109020.117437 eV PBE+vdW (tier 2 basis)
C    -2.441706  -1.284812  0.827281
C    -1.346850  -0.881532  1.758648
O    -0.155780  -1.295990  1.575157
H    -3.424149  -0.908493  1.129817
H    -2.477941  -2.379093  0.750812
H    -2.206362  -0.902109  -0.176203
N    -1.637025  -0.068409  2.777066
C    -0.664435  0.521354  3.704471
C    -0.227259  -0.540326  4.734389
O    0.788857  -1.265468  4.462358
H    -2.610793  0.209857  2.926118
H    0.244719  0.741141  3.125208
C    -1.198145  1.873991  4.255532
C    -2.563485  1.845760  4.900314
C    -2.709757  1.825313  6.301623
C    -3.737522  1.875552  4.126147
C    -3.962041  1.777359  6.903128
C    -4.999690  1.826812  4.713259
C    -5.121754  1.760560  6.110587
O    -6.302475  1.712367  6.759276
H    -1.197698  2.567769  3.402168
H    -0.446783  2.256824  4.959853
H    -1.826923  1.911131  6.940351
H    -3.678176  2.018701  3.043268
H    -4.067156  1.789493  7.986991
H    -5.892337  1.876978  4.088139
H    -7.048392  1.763318  6.137442
N    -0.922515  -0.691579  5.841241
C    -0.629793  -1.659400  6.896869
H    -1.722694  -0.059040  5.976212
H    -1.191398  -2.588507  6.732429
H    -0.932814  -1.229838  7.856703
H    0.441375  -1.878127  6.915115
Sr    1.745897  -2.063558  2.547231
