34
Energy: -109020.01323 eV PBE+vdW (tier 2 basis)
C    -3.059793  -1.133179  -0.388154
C    -2.094837  -1.118690  0.750946
O    -0.891537  -1.498959  0.580524
H    -4.061504  -0.793086  -0.107470
H    -3.124364  -2.147223  -0.804141
H    -2.669382  -0.484031  -1.184529
N    -2.523535  -0.692316  1.941568
C    -1.689252  -0.368869  3.110242
C    -1.188195  -1.642037  3.823905
O    -0.160057  -2.246010  3.375193
H    -3.446782  -0.248654  1.959540
H    -0.777576  0.129668  2.742629
C    -2.467953  0.634069  4.000987
C    -3.031699  1.778441  3.195791
C    -2.200667  2.796036  2.697599
C    -4.400843  1.829691  2.893997
C    -2.713924  3.823888  1.921004
C    -4.931519  2.856978  2.114365
C    -4.087423  3.861543  1.620167
O    -4.515075  4.895934  0.864322
H    -1.786008  0.985957  4.787999
H    -3.308472  0.125907  4.502262
H    -1.136930  2.805983  2.944614
H    -5.082632  1.084012  3.311530
H    -2.076077  4.626261  1.553436
H    -6.003151  2.890743  1.913431
H    -5.480805  4.870729  0.754728
N    -1.820017  -2.061769  4.904019
C    -1.457893  -3.231568  5.704286
H    -2.621213  -1.516573  5.213607
H    -0.426134  -3.516089  5.485783
H    -2.129017  -4.069474  5.475533
H    -1.552566  -2.978601  6.765472
Sr    0.956831  -2.495713  1.398814
