34
Energy: -109020.119783 eV PBE+vdW (tier 2 basis)
C    0.504019  -1.552764  0.945312
C    0.298058  -0.944947  2.293164
O    1.288520  -0.503119  2.962675
H    0.924270  -0.787574  0.276919
H    -0.418603  -1.942645  0.503559
H    1.245396  -2.359297  1.012534
N    -0.943733  -0.860828  2.776249
C    -1.335103  -0.183878  4.018423
C    -0.979180  -1.077928  5.223443
O    0.174836  -0.947550  5.755481
H    -1.711714  -1.267955  2.235768
H    -0.689381  0.700662  4.123475
C    -2.801339  0.324179  3.919517
C    -3.846881  -0.702727  3.553759
C    -4.030310  -1.112798  2.217571
C    -4.699940  -1.256915  4.524492
C    -4.972214  -2.072881  1.872741
C    -5.656320  -2.216055  4.193570
C    -5.787405  -2.645801  2.863841
O    -6.681965  -3.568452  2.456844
H    -2.790593  1.132832  3.174009
H    -3.045574  0.798708  4.879884
H    -3.483686  -0.615504  1.410760
H    -4.661162  -0.892219  5.554018
H    -5.124262  -2.366916  0.835308
H    -6.322954  -2.606364  4.963909
H    -7.243359  -3.863736  3.193995
N    -1.855269  -1.963642  5.647753
C    -1.655721  -2.882155  6.766738
H    -2.759546  -1.989841  5.157102
H    -2.611614  -3.018146  7.282375
H    -0.921054  -2.467061  7.461718
H    -1.307738  -3.858208  6.403630
Sr    2.245523  -0.326476  5.011467
