34
Energy: -109019.85723 eV PBE+vdW (tier 2 basis)
C    -0.692015  -1.977482  0.279201
C    -0.453734  -1.290329  1.584246
O    0.573014  -1.575739  2.275144
H    -1.505973  -1.536027  -0.304949
H    -0.944886  -3.027015  0.492087
H    0.228878  -1.979390  -0.315865
N    -1.354569  -0.385547  1.988884
C    -1.537346  0.230115  3.317585
C    -0.479146  1.280774  3.653304
O    0.737601  0.948496  3.837124
H    -2.151289  -0.275873  1.368042
H    -2.505109  0.735992  3.237883
C    -1.684166  -0.807681  4.474148
C    -2.756804  -1.821969  4.186274
C    -4.113895  -1.490078  4.339213
C    -2.435867  -3.107233  3.730713
C    -5.115170  -2.402854  4.043408
C    -3.428494  -4.038853  3.435903
C    -4.779271  -3.689142  3.587278
O    -5.804159  -4.529185  3.328016
H    -1.909387  -0.233789  5.386103
H    -0.725208  -1.316906  4.654569
H    -4.398891  -0.507281  4.721482
H    -1.390072  -3.406581  3.630100
H    -6.165997  -2.151826  4.178502
H    -3.156831  -5.043222  3.107791
H    -5.478367  -5.404514  3.058433
N    -0.845460  2.540984  3.838131
C    -2.173597  3.149523  3.688319
H    -0.090207  3.157877  4.137957
H    -2.058198  4.231870  3.792133
H    -2.861197  2.801207  4.468937
H    -2.592393  2.947711  2.695904
Sr    2.174202  -0.806033  3.668002
