34
Energy: -109019.793262 eV PBE+vdW (tier 2 basis)
C    0.342929  -1.230278  1.156604
C    -0.387156  0.069248  0.988595
O    0.159846  1.086974  0.537469
H    1.120202  -1.092644  1.921346
H    0.858744  -1.472976  0.219930
H    -0.298029  -2.068151  1.451414
N    -1.712941  0.084794  1.350659
C    -2.550516  1.268086  1.521389
C    -2.823953  2.115533  0.270304
O    -3.964882  2.709261  0.212766
H    -2.110829  -0.787879  1.681226
H    -3.540174  0.881693  1.801714
C    -2.041474  2.181638  2.688533
C    -2.969375  3.306406  3.081808
C    -4.080357  3.082968  3.921918
C    -2.731806  4.638319  2.676748
C    -4.905888  4.130321  4.360724
C    -3.543194  5.698489  3.099580
C    -4.620433  5.462306  3.984368
O    -5.323434  6.534190  4.388235
H    -1.057830  2.583563  2.414442
H    -1.888340  1.523356  3.554380
H    -4.293133  2.073532  4.279202
H    -1.872886  4.860180  2.041372
H    -5.724783  3.918549  5.051223
H    -3.311582  6.726564  2.818628
H    -5.938033  6.322612  5.114413
N    -1.896123  2.254000  -0.640712
C    -2.029478  3.018126  -1.875314
H    -0.964334  1.834073  -0.367752
H    -1.540667  3.996644  -1.774333
H    -3.085198  3.156207  -2.124244
H    -1.533350  2.468385  -2.682149
Sr    -5.300539  4.052912  1.396514
