34
Energy: -109019.563385 eV PBE+vdW (tier 2 basis)
C    -0.128980  2.206479  0.315668
C    -0.139576  0.859481  0.959327
O    0.616369  -0.073146  0.527248
H    -0.817363  2.914931  0.787908
H    -0.398847  2.097953  -0.744159
H    0.887460  2.621015  0.346634
N    -0.957765  0.633785  1.987104
C    -1.084769  -0.645202  2.692162
C    -2.491390  -0.804419  3.367709
O    -2.575762  -1.427720  4.416286
H    -1.503978  1.418456  2.339328
H    -1.035254  -1.431547  1.920969
C    0.021828  -0.873480  3.748614
C    1.165663  -1.758669  3.335114
C    2.508920  -1.328264  3.417385
C    0.949244  -3.095609  2.931048
C    3.582757  -2.178168  3.120028
C    2.009511  -3.962171  2.626120
C    3.347180  -3.521946  2.751384
O    4.425448  -4.289182  2.518445
H    -0.499970  -1.343357  4.601988
H    0.397744  0.095236  4.100600
H    2.726278  -0.311821  3.750481
H    -0.068103  -3.490217  2.892421
H    4.612810  -1.838404  3.234620
H    1.796943  -4.999432  2.359211
H    4.197126  -5.232557  2.430772
N    -3.537010  -0.246728  2.716014
C    -4.909330  -0.385658  3.210206
H    -3.412419  0.094941  1.769186
H    -4.901855  -0.321187  4.302301
H    -5.341502  -1.352150  2.919233
H    -5.518612  0.425151  2.799890
Sr    2.120206  -1.758393  0.601752
