34
Energy: -109019.320833 eV PBE+vdW (tier 2 basis)
C    0.353247  -0.186651  0.440820
C    0.160620  0.437800  1.803241
O    0.955270  1.182135  2.331936
H    -0.527564  -0.078476  -0.207794
H    0.587544  -1.258270  0.531198
H    1.208245  0.301243  -0.034883
N    -1.051195  0.151074  2.485952
C    -1.985986  -0.908995  2.186354
C    -3.258935  -0.382276  1.499480
O    -4.158627  -1.205091  1.109088
H    -1.018020  0.491479  3.446988
H    -1.527480  -1.592672  1.453561
C    -2.316874  -1.712188  3.479380
C    -3.126186  -2.980402  3.337310
C    -2.637693  -4.098739  2.628363
C    -4.369252  -3.131045  3.989892
C    -3.344120  -5.309078  2.570365
C    -5.091010  -4.331081  3.947640
C    -4.567926  -5.452851  3.264914
O    -5.290594  -6.582681  3.305360
H    -2.816208  -1.043495  4.195137
H    -1.346017  -1.973827  3.925860
H    -1.668397  -4.044798  2.129323
H    -4.775180  -2.300344  4.569821
H    -2.909936  -6.161114  2.043368
H    -6.026167  -4.440680  4.498159
H    -4.804774  -7.349500  2.950199
N    -3.350694  0.915983  1.327583
C    -4.438610  1.644736  0.686102
H    -2.534757  1.430908  1.677165
H    -4.039506  2.237776  -0.145339
H    -4.906608  2.323123  1.409877
H    -5.181675  0.938381  0.308701
Sr    -5.067301  -3.257217  1.200723
