34
Energy: -109019.763586 eV PBE+vdW (tier 2 basis)
C    -0.411596  -1.838883  -0.158753
C    -0.326014  -1.101396  1.135572
O    0.753760  -0.530913  1.488489
H    -1.386743  -2.306614  -0.328315
H    0.370906  -2.608312  -0.194606
H    -0.205239  -1.135610  -0.978102
N    -1.410549  -1.039719  1.921032
C    -1.508045  -0.225329  3.142193
C    -0.702161  -0.856827  4.303905
O    0.478732  -0.405356  4.499551
H    -2.262860  -1.481434  1.583370
H    -0.952894  0.701050  2.937395
C    -2.962959  0.176092  3.439043
C    -3.100945  0.899688  4.760603
C    -2.290902  2.000315  5.088613
C    -4.086428  0.514966  5.678824
C    -2.435720  2.672516  6.294388
C    -4.250383  1.181232  6.890269
C    -3.417572  2.263108  7.211067
O    -3.505512  2.962128  8.364347
H    -3.619957  -0.704193  3.431520
H    -3.292079  0.809903  2.598902
H    -1.551431  2.376006  4.377124
H    -4.769974  -0.300430  5.433701
H    -1.818755  3.535498  6.539622
H    -5.036559  0.870536  7.579794
H    -4.241018  2.636902  8.910671
N    -1.136736  -1.857108  5.050051
C    -2.407414  -2.581743  5.023536
H    -0.484125  -2.126683  5.786691
H    -2.758115  -2.725375  3.997918
H    -3.166030  -2.050158  5.610728
H    -2.240034  -3.568355  5.466026
Sr    2.174356  0.213493  3.109832
