34
Energy: -109019.49821 eV PBE+vdW (tier 2 basis)
C    -1.858902  -1.647471  0.814193
C    -0.843655  -0.946356  1.656606
O    0.391067  -1.239191  1.562065
H    -1.907535  -1.194458  -0.188405
H    -2.861871  -1.631400  1.252071
H    -1.532644  -2.685791  0.680024
N    -1.222367  0.018079  2.523551
C    -2.187641  1.060214  2.180797
C    -1.487762  2.031202  1.181459
O    -0.319506  1.757867  0.728002
H    -0.484757  0.313799  3.165021
H    -3.024377  0.591028  1.643586
C    -2.742147  1.737283  3.462603
C    -3.864174  2.719805  3.219826
C    -3.691720  4.091781  3.482058
C    -5.120070  2.289055  2.758031
C    -4.720829  5.003351  3.279393
C    -6.159173  3.189383  2.549511
C    -5.966688  4.557586  2.809438
O    -6.924855  5.491300  2.637542
H    -1.916651  2.240029  3.989589
H    -3.080502  0.916445  4.112426
H    -2.738565  4.451607  3.874450
H    -5.308304  1.227970  2.580543
H    -4.589402  6.061130  3.501674
H    -7.129366  2.829807  2.203897
H    -7.762928  5.085093  2.357823
N    -2.151671  3.110543  0.832908
C    -1.694345  4.159321  -0.074399
H    -3.039929  3.264840  1.332492
H    -1.810812  5.131379  0.418352
H    -2.303240  4.151382  -0.987114
H    -0.645053  4.000567  -0.331969
Sr    1.574372  0.477823  0.557956
