34
Energy: -109019.970089 eV PBE+vdW (tier 2 basis)
C    -3.227232  -0.965733  1.508557
C    -2.239915  0.154237  1.536414
O    -1.218345  0.085195  2.288242
H    -3.757363  -0.972519  2.472902
H    -2.702200  -1.924147  1.419271
H    -3.967265  -0.875537  0.706851
N    -2.474898  1.219420  0.760112
C    -1.833474  2.549973  0.779878
C    -0.408125  2.540123  0.213647
O    0.552892  2.014801  0.858928
H    -3.343019  1.180225  0.233646
H    -2.456934  3.150050  0.104320
C    -1.897205  3.254441  2.168032
C    -3.295933  3.303952  2.720214
C    -4.203195  4.281647  2.286882
C    -3.738212  2.355696  3.656013
C    -5.510593  4.309685  2.761020
C    -5.039022  2.370495  4.141397
C    -5.939835  3.349368  3.691467
O    -7.188450  3.310954  4.204174
H    -1.485224  4.265150  2.027509
H    -1.234649  2.745925  2.886453
H    -3.885196  5.053335  1.582600
H    -3.044818  1.604438  4.041486
H    -6.195355  5.088649  2.422970
H    -5.375588  1.650225  4.885427
H    -7.727121  4.044712  3.862391
N    -0.209069  3.166042  -0.936895
C    1.084403  3.337766  -1.598852
H    -1.022724  3.551547  -1.409532
H    1.153855  4.359995  -1.985679
H    1.179130  2.631415  -2.433569
H    1.886134  3.162388  -0.877921
Sr    0.933545  0.652089  2.649646
