34
Energy: -109019.947979 eV PBE+vdW (tier 2 basis)
C    -0.241077  1.915369  0.374878
C    -0.468423  1.185726  1.658142
O    0.107675  1.573337  2.722132
H    -0.903244  1.591827  -0.434637
H    0.800274  1.740370  0.065802
H    -0.355183  2.994307  0.534351
N    -1.282364  0.123230  1.641551
C    -1.482041  -0.915874  2.672030
C    -2.279385  -0.418891  3.883842
O    -1.769173  0.390101  4.721555
H    -1.653360  -0.116655  0.726523
H    -2.089372  -1.675360  2.162632
C    -0.164920  -1.628963  3.098922
C    0.591942  -2.174984  1.918478
C    0.186460  -3.371764  1.303491
C    1.693669  -1.494672  1.384383
C    0.849657  -3.868781  0.191418
C    2.375381  -1.983182  0.272264
C    1.952796  -3.175659  -0.335431
O    2.556482  -3.722049  -1.412754
H    -0.451418  -2.430542  3.796681
H    0.480177  -0.938359  3.664593
H    -0.649017  -3.943741  1.713266
H    2.053278  -0.577995  1.857900
H    0.546197  -4.804640  -0.275024
H    3.246660  -1.451593  -0.113052
H    3.329339  -3.198004  -1.682892
N    -3.490470  -0.925510  4.060661
C    -4.373185  -0.643803  5.192984
H    -3.845888  -1.555725  3.346042
H    -4.842961  -1.577694  5.519420
H    -5.155580  0.066084  4.895338
H    -3.787480  -0.220925  6.012371
Sr    0.033261  1.764713  4.968639
