34
Energy: -109019.37203 eV PBE+vdW (tier 2 basis)
C    -0.725328  -0.241176  2.210540
C    -1.880608  0.034568  3.116223
O    -2.066917  -0.681599  4.152100
H    -1.064653  -0.746325  1.292399
H    -0.021776  -0.902778  2.724413
H    -0.216851  0.681295  1.910030
N    -2.757328  1.035276  2.863593
C    -3.365921  1.325843  1.555561
C    -4.143865  0.058392  1.102396
O    -4.272734  -0.943469  1.891902
H    -3.376634  1.214579  3.653517
H    -4.129018  2.089025  1.770387
C    -2.424749  1.945024  0.486189
C    -3.174759  2.585137  -0.662204
C    -4.038441  3.677133  -0.452820
C    -2.995503  2.128326  -1.978291
C    -4.706957  4.278747  -1.507610
C    -3.658026  2.725819  -3.049995
C    -4.521110  3.807464  -2.820391
O    -5.198696  4.447134  -3.795545
H    -1.737361  1.188330  0.088899
H    -1.814436  2.693405  1.013883
H    -4.172789  4.091667  0.548933
H    -2.303887  1.307559  -2.179304
H    -5.362736  5.132765  -1.345716
H    -3.487209  2.364106  -4.064816
H    -4.972199  4.089927  -4.671172
N    -4.685774  0.070511  -0.094878
C    -5.488027  -1.012581  -0.662928
H    -4.484065  0.897636  -0.677214
H    -5.802815  -0.712576  -1.665525
H    -6.377701  -1.193203  -0.047920
H    -4.901269  -1.936654  -0.732381
Sr    -3.886093  -2.079074  3.846989
