34
Energy: -109019.993207 eV PBE+vdW (tier 2 basis)
C    -0.374350  -1.644641  -0.120627
C    -0.310053  -1.177466  1.297557
O    0.811535  -1.055164  1.884400
H    0.188815  -2.579486  -0.232709
H    0.124684  -0.894690  -0.751938
H    -1.396029  -1.789299  -0.486595
N    -1.456405  -0.881017  1.921063
C    -1.634819  -0.185981  3.210236
C    -1.481132  -1.173629  4.389109
O    -0.360877  -1.770337  4.541665
H    -2.309557  -1.011825  1.381220
H    -0.791148  0.514968  3.318715
C    -2.954637  0.616432  3.108014
C    -3.390524  1.343930  4.357861
C    -4.627636  1.038139  4.953271
C    -2.601086  2.341086  4.948681
C    -5.056459  1.684332  6.107979
C    -3.018613  2.999184  6.101129
C    -4.250152  2.671462  6.694019
O    -4.723491  3.266076  7.809953
H    -3.759491  -0.068967  2.795324
H    -2.815591  1.325971  2.276911
H    -5.292771  0.308980  4.482843
H    -1.655849  2.641240  4.491504
H    -6.024012  1.459074  6.553650
H    -2.398300  3.785833  6.533294
H    -4.125427  3.971127  8.110420
N    -2.484509  -1.360566  5.216841
C    -2.458580  -2.235796  6.386587
H    -3.284647  -0.720382  5.126128
H    -1.759517  -3.059158  6.221062
H    -3.465721  -2.633869  6.545395
H    -2.156552  -1.669865  7.278078
Sr    1.781903  -1.804690  3.792961
