34
Energy: -109020.874339 eV PBE+vdW (tier 2 basis)
C    1.087663  -0.344144  0.541462
C    0.702863  -0.044674  1.958418
O    1.578962  0.277705  2.798869
H    0.248628  -0.646943  -0.093230
H    1.846215  -1.137887  0.538976
H    1.559771  0.548144  0.108096
N    -0.607169  -0.139369  2.270606
C    -1.329276  0.100369  3.541378
C    -1.144662  1.540136  4.061484
O    -0.072570  1.914678  4.606945
H    -1.208622  -0.405880  1.496804
H    -2.381895  0.003253  3.244632
C    -1.149523  -0.993086  4.637663
C    0.128948  -1.075351  5.442370
C    0.243111  -0.431305  6.692726
C    1.220891  -1.855335  5.019242
C    1.402488  -0.522021  7.467557
C    2.392453  -1.961029  5.777843
C    2.487602  -1.311707  7.027474
O    3.556995  -1.383026  7.838371
H    -1.324692  -1.956347  4.138027
H    -1.990218  -0.859385  5.333833
H    -0.593917  0.152954  7.076898
H    1.164436  -2.398949  4.076168
H    1.462004  -0.045686  8.446146
H    3.208939  -2.593640  5.425470
H    4.201874  -2.047779  7.536391
N    -2.190210  2.352456  3.930312
C    -2.228382  3.745136  4.376053
H    -3.020938  1.993414  3.468285
H    -2.135210  4.421380  3.516653
H    -1.402976  3.922443  5.069389
H    -3.181937  3.935594  4.880119
Sr    2.069355  1.011886  4.944570
