34
Energy: -109020.871514 eV PBE+vdW (tier 2 basis)
C    -3.130241  0.725671  -0.267179
C    -2.280733  0.223158  0.860042
O    -1.086527  0.596821  0.970194
H    -2.625895  0.507592  -1.217660
H    -3.205967  1.819125  -0.191116
H    -4.138566  0.299782  -0.288623
N    -2.858564  -0.632723  1.729605
C    -2.331416  -1.293060  2.945960
C    -1.837152  -0.282346  4.000835
O    -0.737000  0.318975  3.878132
H    -3.829444  -0.851819  1.527111
H    -3.223268  -1.777100  3.365288
C    -1.346691  -2.476137  2.700538
C    0.086131  -2.214579  2.291630
C    0.458943  -2.075827  0.938961
C    1.117400  -2.177477  3.249902
C    1.785580  -1.864979  0.558094
C    2.456568  -1.975337  2.891229
C    2.808991  -1.839077  1.531342
O    4.066591  -1.673383  1.087372
H    -1.824703  -3.119196  1.947839
H    -1.341753  -3.059012  3.632855
H    -0.300389  -2.137960  0.159483
H    0.878163  -2.311779  4.305437
H    2.060682  -1.785877  -0.493503
H    3.229881  -1.983171  3.661403
H    4.725006  -1.807820  1.792607
N    -2.622099  -0.107480  5.061022
C    -2.329160  0.787387  6.180234
H    -3.502904  -0.613059  5.093533
H    -2.947467  1.691816  6.114809
H    -1.273220  1.065752  6.149471
H    -2.548048  0.271150  7.121173
Sr    0.883276  0.560968  2.191979
