34
Energy: -109019.355445 eV PBE+vdW (tier 2 basis)
C    0.764563  0.766702  1.187299
C    -0.148586  -0.072310  2.020546
O    0.316965  -0.828676  2.935129
H    1.051760  1.682804  1.726973
H    0.324719  1.051304  0.226359
H    1.687612  0.198877  1.017100
N    -1.484939  -0.011524  1.847945
C    -2.219717  1.209026  1.569167
C    -1.932434  2.213716  2.704194
O    -1.449956  1.814957  3.816449
H    -2.048536  -0.803348  2.174830
H    -1.913623  1.633465  0.601929
C    -3.753653  0.877666  1.522278
C    -4.029378  -0.394044  0.772482
C    -3.890970  -0.460697  -0.625825
C    -4.410297  -1.557373  1.459608
C    -4.121781  -1.641080  -1.312240
C    -4.647164  -2.752515  0.783052
C    -4.501918  -2.801124  -0.611425
O    -4.716646  -3.909726  -1.348851
H    -4.263573  1.739573  1.069897
H    -4.128011  0.795763  2.554040
H    -3.620832  0.431652  -1.194012
H    -4.583570  -1.520866  2.538400
H    -4.033413  -1.690609  -2.396385
H    -4.969748  -3.637959  1.332305
H    -5.014921  -4.648668  -0.791644
N    -2.260576  3.478434  2.509166
C    -2.151192  4.536293  3.518866
H    -2.629069  3.736640  1.596973
H    -2.589898  5.449772  3.109727
H    -1.099190  4.723926  3.765487
H    -2.693694  4.251387  4.427256
Sr    -0.382184  0.089828  4.941100
