24
Energy: -568494.05528 eV PBE+vdW (tier 2 basis)
N    -1.192340  -0.203832  0.522556
C    -0.356079  -0.565746  1.542548
C    1.281318  -0.524955  1.227323
O    1.672500  -0.290987  0.107825
H    -1.451879  0.767649  0.374175
H    -1.461978  -0.858043  -0.208576
H    -0.396752  0.202572  2.339287
C    -0.601954  -2.032716  2.128553
C    -0.481531  -1.993455  3.612957
C    -1.489372  -1.325566  4.379304
C    0.602776  -2.608424  4.282188
C    -1.423631  -1.304423  5.762726
C    0.662026  -2.585350  5.669315
C    -0.345426  -1.921871  6.413677
H    0.067132  -2.768283  1.666747
H    -1.629437  -2.286103  1.836040
H    -2.332842  -0.857594  3.868927
H    1.344577  -3.177330  3.717739
H    -2.204702  -0.815278  6.343042
H    1.466771  -3.100682  6.192945
H    -0.281579  -1.901145  7.501720
O    2.056661  -0.703225  2.265036
H    1.580348  -0.960404  3.094887
Hg    4.143578  -0.118449  -0.505001
