24
Energy: -568493.938816 eV PBE+vdW (tier 2 basis)
N    0.221120  -0.227477  0.104030
C    -0.021815  -0.068255  1.538507
C    1.297371  0.148564  2.340277
O    2.394930  -0.258331  1.963167
H    0.194785  0.657968  -0.411747
H    -0.443325  -0.881409  -0.328967
H    -0.629010  0.844294  1.684729
C    -0.758182  -1.307378  2.130445
C    -2.134401  -1.487492  1.537516
C    -2.354641  -2.376403  0.479890
C    -3.231372  -0.751227  2.048983
C    -3.642011  -2.521505  -0.070769
C    -4.515112  -0.898356  1.505104
C    -4.723396  -1.778565  0.441844
H    -0.828637  -1.181525  3.220218
H    -0.140134  -2.202823  1.962035
H    -1.550560  -3.020979  0.117627
H    -3.088640  -0.075985  2.894578
H    -3.807188  -3.232107  -0.880331
H    -5.345975  -0.327000  1.917198
H    -5.718084  -1.903273  0.015732
O    1.219430  0.737750  3.508567
H    0.330165  1.077783  3.732621
Hg    2.462131  -1.115626  -0.262390
