24
Energy: -568493.754522 eV PBE+vdW (tier 2 basis)
N    -0.398920  -0.952747  2.768180
C    1.038805  -0.571830  3.045300
C    1.692854  -0.122081  1.706284
O    1.090791  -0.318329  0.645682
H    -0.529331  -0.969651  1.738837
H    -1.054977  -0.261970  3.155668
H    1.052260  0.263672  3.754952
C    1.682890  -1.844094  3.630299
C    0.515912  -2.543938  4.356296
C    0.234328  -2.013618  5.729293
C    -0.670558  -2.377196  3.400993
C    -1.040299  -1.825999  6.187262
C    -2.026037  -2.401042  4.021621
C    -2.173145  -2.118527  5.350836
H    2.520861  -1.595406  4.289741
H    2.068127  -2.488485  2.828222
H    1.084170  -1.853033  6.395963
H    -0.600386  -3.071009  2.554693
H    -1.209529  -1.495565  7.212012
H    -2.889107  -2.626344  3.394718
H    -3.170049  -2.112506  5.793232
O    2.850693  0.395068  1.876470
H    0.748341  -3.620232  4.467155
Hg    3.388303  0.879862  -0.252711
