18
Energy: -166046.129581 eV PBE+vdW (tier 2 basis)
N    -0.505487  -0.616576  0.325687
C    -0.217021  -0.017794  1.576969
C    1.282450  -0.055995  1.986454
O    1.754015  0.310609  3.084794
H    -0.414262  -1.620504  0.198485
H    -0.432073  -0.065355  -0.524291
H    -0.447312  1.060687  1.504724
C    -1.175903  -0.611717  2.650990
O    -1.271398  0.415919  3.739602
C    -0.827684  -1.978441  3.196678
H    -2.172160  -0.617095  2.181874
H    -2.142366  0.345507  4.181668
H    0.159463  -2.007297  3.683810
H    -0.815360  -2.724485  2.389039
H    -1.586474  -2.317280  3.913441
O    2.056984  -0.485318  1.034525
H    3.011445  -0.462884  1.281682
Cd    0.583143  0.900017  4.867867
