18
Energy: -166046.463108 eV PBE+vdW (tier 2 basis)
N    0.845473  -0.975869  0.510844
C    -0.000336  -0.090244  1.414223
C    0.875435  0.414614  2.581813
O    0.612659  0.287908  3.778173
H    1.778432  -0.574291  0.328060
H    0.956625  -1.912446  0.935496
H    -0.258464  0.799577  0.818199
C    -1.291921  -0.834191  1.836774
O    -0.999765  -1.974250  2.632014
C    -2.107436  -1.326982  0.633329
H    -1.904769  -0.079843  2.361331
H    0.376840  -1.108739  -0.398910
H    -2.292663  -0.507101  -0.077396
H    -3.078452  -1.692954  0.983166
H    -1.621723  -2.167128  0.116516
O    1.942849  1.042734  2.130113
H    2.499711  1.400799  2.859336
Cd    -0.609497  -1.543592  4.606919
