18
Energy: -166046.215753 eV PBE+vdW (tier 2 basis)
N    -0.502533  0.197990  -0.095430
C    -0.192644  0.115628  1.382673
C    1.316641  0.478946  1.471689
O    1.981870  0.497950  0.457283
H    -1.192804  -0.518667  -0.363643
H    -0.871642  1.121706  -0.360686
H    -0.804529  0.855237  1.914534
C    -0.509078  -1.324561  1.914516
O    -1.826314  -1.544807  1.406098
C    -0.430254  -1.403482  3.431218
H    0.198703  -2.033695  1.449413
H    0.408251  0.074145  -0.595840
H    0.575134  -1.203877  3.819287
H    -0.662925  -2.442763  3.736179
H    -1.136089  -0.712981  3.910709
O    1.699970  0.749630  2.704838
H    2.652505  0.993671  2.719724
Cd    -2.965262  -3.050071  2.194438
