18
Energy: -166046.045012 eV PBE+vdW (tier 2 basis)
N    0.917640  -0.939330  0.240125
C    0.118686  -0.307124  1.356329
C    1.195674  0.061824  2.402519
O    2.344204  -0.299597  2.233043
H    1.894679  -1.005838  0.650003
H    0.951147  -0.350048  -0.602453
H    -0.369333  0.598573  0.976925
C    -1.002714  -1.296137  1.873658
O    -1.920024  -0.408478  2.486742
C    -0.477374  -2.396767  2.783500
H    -1.455599  -1.732089  0.962651
H    0.588749  -1.872598  -0.038805
H    -0.087090  -1.993958  3.726684
H    0.314970  -2.996647  2.312558
H    -1.292354  -3.108527  3.001114
O    0.714738  0.769824  3.409745
H    1.447026  1.010582  4.019517
Cd    -3.472028  -1.035666  3.629147
