18
Energy: -166046.563465 eV PBE+vdW (tier 2 basis)
N    0.723989  1.134347  1.795487
C    -0.340751  0.079693  2.048079
C    0.215004  -1.321487  1.832726
O    -0.474719  -2.338718  1.940989
H    1.564858  0.986199  2.376340
H    1.037598  1.143649  0.812080
H    -0.631996  0.176944  3.104205
C    -1.644868  0.357521  1.185402
O    -2.746958  -0.250046  1.785347
C    -1.478676  0.079094  -0.305037
H    -1.851005  1.443413  1.316299
H    0.356382  2.074292  2.014153
H    -2.404689  0.352978  -0.824088
H    -1.274574  -0.986565  -0.505796
H    -0.672053  0.665789  -0.770826
O    1.495287  -1.340058  1.511624
H    1.828073  -2.258853  1.388899
Cd    -2.803903  -2.305193  1.804115
