18
Energy: -166046.009057 eV PBE+vdW (tier 2 basis)
N    0.993624  -1.321499  1.021655
C    0.131133  -0.244836  1.395646
C    0.830648  0.602764  2.492577
O    0.839560  0.409012  3.734582
H    1.779508  -1.127765  0.406709
H    1.108712  -2.125036  1.631501
H    0.041138  0.439573  0.538091
C    -1.312823  -0.688570  1.728058
O    -1.243015  -1.675086  2.869218
C    -2.012592  -1.358296  0.571923
H    -1.884533  0.179805  2.087304
H    -1.982240  -2.309462  2.776373
H    -3.038149  -1.644125  0.846438
H    -1.457921  -2.230459  0.202306
H    -2.107699  -0.645760  -0.261814
O    1.547396  1.560122  1.973909
H    2.077402  2.047748  2.646717
Cd    -0.461148  -0.963129  4.810805
