18
Energy: -166046.233542 eV PBE+vdW (tier 2 basis)
N    0.829099  -0.740523  0.071350
C    0.204305  -0.156301  1.172033
C    1.317758  0.237588  2.322034
O    1.853809  1.360941  2.244693
H    1.190242  -0.156538  -0.677513
H    1.170746  -1.697166  0.094567
H    -0.243787  0.807208  0.896010
C    -0.893499  -1.007251  1.848463
O    -0.137531  -2.205651  2.443955
C    -1.970571  -1.514729  0.929267
H    -1.300165  -0.457423  2.709007
H    -0.714439  -2.782873  2.989378
H    -2.503283  -0.652371  0.503156
H    -2.714252  -2.099611  1.487095
H    -1.567292  -2.113142  0.104954
O    1.609023  -0.636970  3.193391
H    0.656204  -1.779168  2.987957
Cd    3.312633  1.078983  3.932203
