18
Energy: -166046.884747 eV PBE+vdW (tier 2 basis)
N    0.691574  -0.778291  0.062863
C    0.100981  -0.246786  1.348414
C    1.237674  0.014609  2.351396
O    0.917124  0.355877  3.531354
H    1.644052  -0.425479  -0.109246
H    0.099164  -0.562137  -0.750078
H    -0.398997  0.712698  1.158518
C    -0.894577  -1.314571  1.876602
O    -0.095165  -2.503874  1.816983
C    -2.178029  -1.390770  1.061577
H    -1.122457  -1.047718  2.920754
H    -0.639755  -3.292686  1.983897
H    -2.827855  -2.169279  1.484635
H    -2.007065  -1.651653  0.007208
H    -2.736444  -0.446727  1.112595
O    2.445215  -0.094405  1.964977
H    0.725877  -1.816122  0.194606
Cd    3.065682  0.483312  4.058946
