18
Energy: -166046.205919 eV PBE+vdW (tier 2 basis)
N    0.982596  -0.892355  0.369636
C    -0.013700  -0.450425  1.426273
C    0.849422  -0.097838  2.643255
O    2.049574  -0.152287  2.635070
H    0.928580  -1.902192  0.170510
H    1.938315  -0.695410  0.745430
H    -0.503553  0.462969  1.061359
C    -1.136826  -1.521336  1.674442
O    -2.276918  -0.919570  2.204751
C    -0.671604  -2.781878  2.396296
H    -1.491082  -1.814792  0.657796
H    0.861599  -0.389834  -0.520921
H    -0.355228  -2.551617  3.429576
H    0.176321  -3.283105  1.906126
H    -1.493275  -3.506107  2.434404
O    0.121531  0.300513  3.736159
H    0.766696  0.566945  4.432068
Cd    -2.343447  -0.369679  4.174770
