18
Energy: -166047.159174 eV PBE+vdW (tier 2 basis)
N    -0.563925  -0.203689  0.015292
C    -0.101575  -0.106978  1.425892
C    1.413817  -0.369756  1.458603
O    1.971882  -1.181351  0.693957
H    -1.587033  -0.151830  -0.038708
H    -0.193178  0.559180  -0.562751
H    -0.293820  0.887813  1.853202
C    -0.832472  -1.166899  2.309409
O    -0.561750  -2.469197  1.665901
C    -2.315034  -0.912467  2.482856
H    -0.326022  -1.185028  3.286377
H    -1.087285  -3.177715  2.081425
H    -2.474538  0.050200  2.988409
H    -2.757239  -1.683720  3.128392
H    -2.875058  -0.909091  1.536678
O    2.033001  0.303468  2.382371
H    2.994317  0.088811  2.427793
Cd    0.349140  -2.254653  -0.406321
