18
Energy: -166046.835597 eV PBE+vdW (tier 2 basis)
N    1.296135  -2.012287  0.924528
C    0.566252  -0.771410  1.375212
C    1.444228  0.058322  2.311382
O    1.111465  1.262415  2.541490
H    1.888870  -1.861668  0.097689
H    0.524349  -2.686898  0.692630
H    0.326287  -0.177418  0.483165
C    -0.786097  -1.252201  2.060386
O    -1.183679  -2.380251  1.288414
C    -1.826596  -0.154380  2.129036
H    -0.538255  -1.634424  3.064738
H    -1.999402  -2.193077  0.788698
H    -2.103949  0.199920  1.125506
H    -1.474144  0.708101  2.707495
H    -2.724422  -0.537764  2.630565
O    2.458470  -0.494884  2.847514
H    1.884294  -2.405487  1.675471
Cd    2.834194  1.454387  3.938082
