18
Energy: -166046.151124 eV PBE+vdW (tier 2 basis)
N    0.590698  -0.390965  0.037825
C    0.335388  0.048012  1.323572
C    1.665722  0.144258  2.342536
O    2.795564  0.293130  1.854908
H    0.745438  -1.374955  -0.162128
H    0.982184  0.253408  -0.643627
H    0.049190  1.114115  1.306767
C    -0.792973  -0.780511  1.995727
O    -0.994558  -0.118638  3.351547
C    -0.577784  -2.266161  2.145227
H    -1.720804  -0.543276  1.459862
H    -1.602999  -0.628771  3.928784
H    -1.422705  -2.730667  2.672283
H    0.352353  -2.515483  2.672966
H    -0.560162  -2.740544  1.154044
O    1.428601  0.146479  3.593418
H    -0.030747  -0.012637  3.765262
Cd    3.848595  0.541206  3.850028
