22
Energy: -169057.208671 eV PBE+vdW (tier 2 basis)
N    -0.37335  -0.92817  -0.39860
C    -0.19154  -0.27960  0.96625
C    1.32053  -0.04293  1.21123
O    1.74854  0.10135  2.39145
H    -1.33258  -0.78370  -0.75569
H    -0.19523  -1.94529  -0.37993
H    0.28280  -0.51375  -1.08524
H    -0.58157  0.74698  0.84748
C    -1.03659  -0.93186  2.08534
C    -0.82134  -2.35718  2.50438
N    -0.01799  -2.73804  3.57849
C    -1.47781  -3.50443  2.11747
C    -0.17462  -4.04255  3.83580
N    -1.05095  -4.51724  2.94602
H    -2.09139  -0.82717  1.78519
H    -0.93377  -0.27201  2.96004
H    0.55338  -2.11863  4.15119
H    -2.24627  -3.67084  1.36991
H    0.31135  -4.60807  4.62631
H    -1.37679  -5.48595  2.91770
O    2.05067  0.11462  0.17991
Cd    3.75331  0.76890  1.50067
