22
Energy: -169056.623504 eV PBE+vdW (tier 2 basis)
N    -0.73876  1.26895  -0.15540
C    -0.22981  0.64093  1.00033
C    1.37658  0.80530  1.01741
O    2.07433  0.22601  1.87328
H    -1.33301  2.09043  -0.06214
H    -0.89709  0.72755  -1.00336
H    1.18498  1.96313  -0.44845
H    -0.52059  1.22428  1.89108
C    -0.58740  -0.86910  1.21552
C    -2.00588  -1.12348  1.61048
N    -2.94777  -1.73538  0.79280
C    -2.66076  -0.89696  2.81197
C    -4.10725  -1.88746  1.44738
N    -3.93846  -1.37320  2.67296
H    0.07216  -1.24351  2.01546
H    -0.33496  -1.44298  0.31184
H    -2.79509  -2.08683  -0.15274
H    -2.31158  -0.45974  3.74124
H    -5.01165  -2.34969  1.05950
H    -4.66152  -1.35948  3.39641
O    1.89792  1.60140  0.14750
Cd    4.29661  0.49483  2.10493
