22
Energy: -169057.008406 eV PBE+vdW (tier 2 basis)
N    0.21177  0.95559  1.11381
C    0.18496  -0.23363  2.01661
C    1.49440  -1.05623  1.86283
O    2.51154  -0.64920  1.26709
H    -0.18560  1.78235  1.57432
H    -0.34500  0.79321  0.26545
H    2.30840  -2.69209  2.43928
H    0.24956  0.14948  3.04942
C    -1.09627  -1.12817  1.87033
C    -2.32165  -0.69793  2.62635
N    -3.56561  -0.50551  2.03107
C    -2.54285  -0.56921  3.98222
C    -4.49849  -0.27830  2.96574
N    -3.88117  -0.30543  4.15100
H    -0.82290  -2.13093  2.22895
H    -1.33081  -1.26027  0.80290
H    -3.78842  -0.59237  1.03973
H    -1.87396  -0.67251  4.82966
H    -5.55821  -0.11051  2.79142
H    -4.35161  -0.17007  5.04872
O    1.45500  -2.19514  2.48036
Cd    2.40090  1.35688  0.39875
