22
Energy: -169056.371030 eV PBE+vdW (tier 2 basis)
N    1.58449  -0.54290  0.34665
C    0.58864  -0.22566  1.29563
C    1.29782  0.51158  2.54459
O    0.65204  0.81889  3.56786
H    1.56573  -0.08972  -0.56517
H    1.98644  -1.47913  0.33520
H    2.86951  0.48259  1.52927
H    -0.05696  0.57593  0.89789
C    -0.28072  -1.41064  1.84796
C    -1.19403  -2.06596  0.86644
N    -2.39846  -1.53722  0.40851
C    -1.10696  -3.32176  0.28893
C    -3.01608  -2.41487  -0.39291
N    -2.23304  -3.49948  -0.47149
H    -0.86417  -1.01480  2.69596
H    0.38262  -2.18382  2.26087
H    -2.81227  -0.64210  0.66613
H    -0.34912  -4.09256  0.38299
H    -3.97840  -2.27751  -0.87973
H    -2.46130  -4.33781  -1.01140
O    2.54409  0.81053  2.41620
Cd    1.49815  1.95442  5.30561
