22
Energy: -169056.695611 eV PBE+vdW (tier 2 basis)
N    0.68744  -0.30007  -0.01146
C    0.28593  -0.02682  1.40399
C    1.53599  0.23927  2.28437
O    2.67283  0.42214  1.80159
H    0.73282  -1.31030  -0.19915
H    -0.00367  0.08977  -0.66488
H    0.53133  0.27112  3.95083
H    -0.23119  0.94994  1.39215
C    -0.75668  -1.04008  1.97433
C    -0.37491  -2.46876  2.26726
N    -1.27999  -3.50576  2.03840
C    0.69194  -3.05548  2.91051
C    -0.79891  -4.65878  2.51645
N    0.40161  -4.39643  3.03943
H    -1.60458  -1.03072  1.27267
H    -1.18231  -0.58543  2.88672
H    -2.20515  -3.42423  1.61434
H    1.61037  -2.64448  3.31383
H    -1.29372  -5.62654  2.48358
H    1.00007  -5.09538  3.48510
O    1.43511  0.32586  3.57589
Cd    2.80872  0.57077  -0.36262
