22
Energy: -169057.334803 eV PBE+vdW (tier 2 basis)
N    0.19025  0.19049  -0.06085
C    0.52195  -0.27672  1.35231
C    1.76638  -1.20024  1.28328
O    2.43780  -1.19172  0.20398
H    -0.40818  1.03324  -0.05334
H    -0.30315  -0.53177  -0.61181
H    1.05642  0.41767  -0.58096
H    0.86124  0.62463  1.88721
C    -0.73589  -0.87919  2.02425
C    -0.72607  -0.93251  3.52640
N    -1.18435  -2.03833  4.23396
C    -0.46797  0.03089  4.47781
C    -1.21000  -1.77269  5.54573
N    -0.76844  -0.52055  5.70102
H    -0.92827  -1.88305  1.61821
H    -1.59818  -0.26018  1.71862
H    -1.50226  -2.92355  3.84009
H    -0.12596  1.05597  4.39068
H    -1.53351  -2.44736  6.33380
H    -0.69050  -0.04466  6.60224
O    2.08800  -1.87246  2.30310
Cd    3.94001  -2.59604  1.15183
