22
Energy: -169057.184667 eV PBE+vdW (tier 2 basis)
N    0.88719  1.39047  1.35702
C    0.13231  0.29438  2.03805
C    0.92191  -1.02658  1.92265
O    2.12987  -1.09516  1.63038
H    0.76929  2.28095  1.85619
H    0.53481  1.54797  0.40234
H    0.76795  -2.90568  2.20664
H    0.14266  0.52156  3.11791
C    -1.36720  0.22970  1.53976
C    -2.37654  -0.36426  2.47788
N    -2.95213  -1.62113  2.32419
C    -3.02736  0.20695  3.55315
C    -3.90801  -1.80960  3.24313
N    -3.95134  -0.70609  3.99845
H    -1.41085  -0.27467  0.56390
H    -1.67453  1.26987  1.36194
H    -2.74592  -2.29805  1.59100
H    -2.92587  1.18475  4.01166
H    -4.53985  -2.68814  3.34592
H    -4.60010  -0.56467  4.77619
O    0.21887  -2.08421  2.21470
Cd    3.12686  0.81862  1.15693
