32
Energy: -19780.735556 eV PBE+vdW (tier 2 basis)
C    -0.803956  0.809952  0.660662
C    -0.313744  0.216277  1.967802
O    0.880753  0.004985  2.188347
H    -1.895461  0.896043  0.599595
H    -0.442898  0.187585  -0.167064
H    -0.360068  1.806156  0.537964
N    -1.283541  -0.056258  2.884097
C    -0.993451  -0.634320  4.174463
C    -2.300925  -1.268940  4.669640
O    -3.382660  -0.966656  4.163505
H    -2.273673  0.084151  2.693197
H    -0.213803  -1.400101  4.036670
C    -0.425042  0.415584  5.183366
C    -1.359060  1.561478  5.465565
C    -2.278712  1.500727  6.521357
C    -1.350236  2.704645  4.654322
C    -3.168989  2.547478  6.758489
C    -2.239886  3.753677  4.887059
C    -3.153864  3.677463  5.939234
H    0.512095  0.778842  4.741433
H    -0.159304  -0.095884  6.118549
H    -2.298197  0.619427  7.165402
H    -0.630948  2.772471  3.837111
H    -3.875829  2.481592  7.585765
H    -2.215924  4.636118  4.247291
H    -3.847789  4.497438  6.123583
N    -2.229979  -2.157604  5.701186
C    -1.060230  -2.671951  6.390598
H    -3.142795  -2.482768  6.004915
H    -0.194572  -2.704649  5.719455
H    -1.260212  -3.698356  6.720570
H    -0.791099  -2.071604  7.273873
