32
Energy: -19780.8436772 eV PBE+vdW (tier 2 basis)
C    0.961480  -1.692624  0.798460
C    0.223392  -1.511597  2.111729
O    0.003012  -2.445178  2.875537
H    1.012409  -0.780868  0.190271
H    0.470628  -2.485033  0.220790
H    1.982032  -2.033314  1.015299
N    -0.198938  -0.224983  2.369823
C    -0.728787  0.170975  3.664706
C    -2.218436  0.582238  3.640021
O    -2.739054  1.109568  4.622233
H    0.160769  0.521329  1.780031
H    -0.686541  -0.733694  4.291633
C    0.136672  1.274424  4.319841
C    0.366779  2.460304  3.414807
C    -0.601280  3.468527  3.279970
C    1.538388  2.556328  2.648160
C    -0.403637  4.532282  2.400129
C    1.737288  3.620371  1.765191
C    0.763515  4.610892  1.636521
H    1.099160  0.827321  4.603000
H    -0.379735  1.579781  5.238472
H    -1.513287  3.413556  3.875071
H    2.312312  1.793860  2.759132
H    -1.164116  5.308736  2.314014
H    2.658301  3.678679  1.184694
H    0.916735  5.445251  0.952268
N    -2.881351  0.293624  2.491333
C    -4.300011  0.530313  2.321558
H    -2.350000  -0.164710  1.759395
H    -4.852040  -0.413109  2.203863
H    -4.492113  1.165692  1.446023
H    -4.660545  1.041061  3.221027
