32
Energy: -19780.8071599 eV PBE+vdW (tier 2 basis)
C    0.829642  -0.738850  0.668904
C    0.479183  -0.336519  2.088849
O    1.338993  -0.040047  2.920246
H    1.508131  -1.600059  0.704732
H    1.373611  0.086473  0.192708
H    -0.042968  -0.993836  0.055339
N    -0.853102  -0.324771  2.382658
C    -1.346150  0.020886  3.699025
C    -2.685063  -0.707865  3.870628
O    -3.436974  -0.836091  2.898198
H    -1.563498  -0.581079  1.701907
H    -0.588676  -0.301138  4.425191
C    -1.535005  1.563079  3.838103
C    -1.891598  2.007433  5.230817
C    -0.892693  2.160977  6.203317
C    -3.225469  2.224648  5.601625
C    -1.218598  2.510280  7.513654
C    -3.555572  2.574884  6.911770
C    -2.552723  2.714820  7.873473
H    -2.306413  1.873493  3.119511
H    -0.583329  2.015061  3.527791
H    0.150896  2.001534  5.925318
H    -4.012343  2.111002  4.854139
H    -0.428698  2.627683  8.255767
H    -4.598440  2.742733  7.181738
H    -2.808797  2.990642  8.896324
N    -3.028985  -1.186109  5.094998
C    -2.314579  -1.134507  6.360268
H    -3.961932  -1.590137  5.103205
H    -2.434203  -2.092382  6.882706
H    -2.681158  -0.324959  7.007376
H    -1.245985  -0.975090  6.192999
