32
Energy: -19780.7508266 eV PBE+vdW (tier 2 basis)
C    -0.751839  0.442982  -0.374478
C    -0.595383  0.650187  1.118830
O    0.342080  1.315333  1.577710
H    0.143900  -0.066694  -0.751237
H    -0.799282  1.423842  -0.863044
H    -1.636693  -0.141205  -0.654505
N    -1.545848  0.061264  1.897330
C    -1.597656  0.040135  3.367412
C    -1.962580  1.408695  4.003780
O    -2.977587  1.516038  4.689984
H    -2.301125  -0.413061  1.418615
H    -2.459476  -0.588725  3.620496
C    -0.330937  -0.606210  3.985161
C    -0.430863  -0.751142  5.483164
C    -1.102470  -1.840721  6.053402
C    0.119973  0.213923  6.335764
C    -1.223105  -1.963793  7.436913
C    0.000971  0.095631  7.720621
C    -0.671957  -0.993389  8.275737
H    0.550692  -0.012213  3.716258
H    -0.208906  -1.594319  3.516549
H    -1.533844  -2.605356  5.403950
H    0.642575  1.069180  5.905372
H    -1.747260  -2.819984  7.861865
H    0.436284  0.856741  8.368389
H    -0.765062  -1.087349  9.357559
N    -1.074379  2.408817  3.777198
C    -1.272221  3.744772  4.302620
H    -0.330044  2.224924  3.096055
H    -1.728720  4.417786  3.560012
H    -0.310361  4.170318  4.615382
H    -1.941877  3.682591  5.167135
