32
Energy: -19780.4420232 eV PBE+vdW (tier 2 basis)
C    0.098281  0.578517  0.230475
C    -0.383132  -0.570118  1.092214
O    -0.089136  -1.739255  0.856297
H    0.834123  0.179985  -0.472585
H    0.557278  1.382717  0.820718
H    -0.737786  1.010053  -0.338361
N    -1.176309  -0.272308  2.181848
C    -1.794519  0.998820  2.516138
C    -1.494310  1.517350  3.939555
O    -1.138131  2.685540  4.085846
H    -1.525061  -1.115781  2.627628
H    -1.325914  1.761649  1.887002
C    -3.321419  1.033899  2.214028
C    -3.581632  0.950610  0.732516
C    -3.698956  -0.286011  0.084658
C    -3.617719  2.118749  -0.042502
C    -3.835750  -0.355926  -1.302271
C    -3.760377  2.053068  -1.428092
C    -3.864626  0.813484  -2.063112
H    -3.722902  1.972379  2.621819
H    -3.824699  0.209920  2.741642
H    -3.668807  -1.206631  0.668811
H    -3.526215  3.089704  0.447997
H    -3.915506  -1.327722  -1.788994
H    -3.789618  2.971872  -2.013922
H    -3.971136  0.759880  -3.146334
N    -1.671897  0.702726  5.023887
C    -2.049750  -0.698250  5.098483
H    -1.414525  1.162490  5.892086
H    -2.390916  -0.911242  6.117711
H    -1.214491  -1.378904  4.870968
H    -2.890733  -0.926863  4.430939
