32
Energy: -19780.4039809 eV PBE+vdW (tier 2 basis)
C    -0.406054  -0.608963  -0.262285
C    -0.124648  -0.285040  1.193753
O    0.976672  0.091475  1.583324
H    -0.116990  0.251871  -0.876892
H    -1.454281  -0.859603  -0.467950
H    0.227727  -1.453253  -0.562039
N    -1.193207  -0.430857  2.045437
C    -1.026349  -0.327192  3.497650
C    -2.122797  -1.123234  4.224965
O    -1.822948  -2.038962  4.983293
H    -2.011451  -0.914697  1.694509
H    -0.094797  -0.842204  3.768197
C    -0.889366  1.145187  3.976207
C    -0.634077  1.244552  5.458315
C    0.654459  1.042225  5.971890
C    -1.676908  1.504904  6.355966
C    0.892108  1.096800  7.344499
C    -1.443382  1.562513  7.730348
C    -0.156770  1.356627  8.228913
H    -1.783254  1.720704  3.705050
H    -0.046692  1.569756  3.415025
H    1.478301  0.842066  5.284652
H    -2.686280  1.668609  5.973715
H    1.900985  0.938023  7.725593
H    -2.267920  1.769104  8.412928
H    0.028755  1.400503  9.301983
N    -3.444816  -0.826708  3.981875
C    -4.051587  0.328518  3.338130
H    -4.059322  -1.405431  4.548758
H    -5.008340  0.029673  2.891223
H    -3.414233  0.711483  2.535236
H    -4.244146  1.152622  4.044052
