32
Energy: -19780.407724 eV PBE+vdW (tier 2 basis)
C    -0.383464  0.455691  -0.235671
C    -0.171236  0.784243  1.232488
O    0.546073  1.711475  1.592119
H    0.533889  0.685571  -0.786586
H    -1.183042  1.103944  -0.620724
H    -0.666663  -0.589443  -0.416087
N    -0.833966  -0.060509  2.095259
C    -1.080151  0.174833  3.507720
C    -2.202756  1.230397  3.692811
O    -2.536098  1.991021  2.792220
H    -1.466278  -0.717421  1.654664
H    -1.449926  -0.784576  3.904182
C    0.196448  0.539316  4.312168
C    1.207113  -0.580445  4.327826
C    2.269973  -0.604872  3.415698
C    1.087675  -1.634385  5.244798
C    3.185300  -1.658468  3.418595
C    2.000244  -2.689436  5.249935
C    3.052975  -2.705032  4.332802
H    -0.105618  0.771221  5.342117
H    0.625832  1.447481  3.877495
H    2.373180  0.212667  2.701688
H    0.273560  -1.623639  5.973659
H    4.008514  -1.659965  2.703657
H    1.894522  -3.496304  5.975632
H    3.770074  -3.525924  4.335879
N    -2.831342  1.261347  4.911693
C    -2.634739  0.423872  6.081330
H    -3.521091  2.004043  4.974415
H    -3.575407  0.369063  6.642308
H    -1.854318  0.806672  6.758305
H    -2.366425  -0.600339  5.795041
