32
Energy: -19780.4704174 eV PBE+vdW (tier 2 basis)
C    -0.070243  0.258508  -0.189674
C    0.068387  0.314686  1.317594
O    1.153077  0.502409  1.864138
H    0.843450  0.673179  -0.623409
H    -0.943864  0.799261  -0.572200
H    -0.170473  -0.785707  -0.518847
N    -1.052934  0.094527  2.090826
C    -2.465146  0.068761  1.713987
C    -2.775735  -0.922986  0.568300
O    -3.344492  -0.567577  -0.461092
H    -0.853782  0.215493  3.080193
H    -2.987163  -0.326684  2.601977
C    -3.061939  1.463440  1.421342
C    -2.977382  2.370839  2.621915
C    -1.850068  3.173644  2.846209
C    -4.010933  2.395014  3.569521
C    -1.756633  3.974475  3.985323
C    -3.922330  3.195403  4.708681
C    -2.792142  3.987310  4.920985
H    -4.105476  1.324841  1.110534
H    -2.541476  1.905512  0.561562
H    -1.034892  3.170837  2.121338
H    -4.901528  1.784707  3.405612
H    -0.871469  4.591358  4.140382
H    -4.740442  3.205711  5.429209
H    -2.721676  4.615620  5.808702
N    -2.414239  -2.226033  0.764688
C    -1.781542  -2.843876  1.919240
H    -2.640163  -2.819204  -0.027564
H    -1.968272  -3.922987  1.878961
H    -2.211378  -2.470453  2.857806
H    -0.695977  -2.674259  1.948253
