32
Energy: -19780.104368 eV PBE+vdW (tier 2 basis)
C    0.267782  -0.146177  0.705661
C    0.129509  -0.519729  2.168378
O    0.859310  -1.359257  2.688528
H    0.473543  0.924103  0.573842
H    -0.645179  -0.391979  0.147286
H    1.102781  -0.719051  0.294620
N    -0.838188  0.104344  2.924464
C    -1.904331  1.045847  2.563799
C    -2.924460  0.369753  1.596983
O    -3.584131  -0.562532  2.055014
H    -0.914412  -0.318522  3.844288
H    -2.509237  1.098821  3.478912
C    -1.369430  2.466806  2.321381
C    -2.401228  3.571303  2.218776
C    -2.008349  4.813568  1.696008
C    -3.730118  3.422002  2.636888
C    -2.908114  5.872069  1.594849
C    -4.636698  4.480318  2.531772
C    -4.231417  5.708207  2.011783
H    -0.713610  2.506760  1.442290
H    -0.708567  2.680309  3.177258
H    -0.978002  4.948132  1.360741
H    -4.082601  2.474240  3.043310
H    -2.577205  6.826711  1.185603
H    -5.666658  4.337690  2.858761
H    -4.940038  6.531907  1.929641
N    -3.099853  0.744810  0.292847
C    -2.557459  1.825922  -0.518067
H    -3.835778  0.188572  -0.133614
H    -2.871129  1.651608  -1.552908
H    -1.461818  1.838097  -0.510158
H    -2.927424  2.812648  -0.208522
