32
Energy: -19780.5690109 eV PBE+vdW (tier 2 basis)
C    -1.206856  0.822898  -0.016159
C    -0.862766  0.009176  1.219287
O    -0.122339  -0.968802  1.178049
H    -0.280752  1.234099  -0.436868
H    -1.907220  1.646024  0.174796
H    -1.637572  0.153132  -0.770776
N    -1.441315  0.446067  2.382063
C    -1.210567  -0.197444  3.658756
C    -2.050849  -1.451925  3.999599
O    -1.627886  -2.198586  4.881676
H    -2.069365  1.241739  2.352247
H    -0.186294  -0.594011  3.635874
C    -1.312096  0.830761  4.814486
C    -2.661767  1.499460  4.896898
C    -3.726273  0.886466  5.576229
C    -2.903261  2.719338  4.246180
C    -4.995922  1.462693  5.581870
C    -4.174703  3.297696  4.248127
C    -5.227224  2.666268  4.911217
H    -0.523918  1.582143  4.666695
H    -1.088724  0.290734  5.743167
H    -3.553710  -0.054174  6.100684
H    -2.077790  3.232500  3.747596
H    -5.809209  0.972319  6.117146
H    -4.339424  4.247451  3.738999
H    -6.219887  3.115877  4.917997
N    -3.226932  -1.728047  3.362912
C    -4.032972  -0.956829  2.427495
H    -3.622500  -2.602212  3.695230
H    -3.615756  -0.957652  1.411105
H    -4.173533  0.078875  2.761621
H    -5.025658  -1.419638  2.385523
