32
Energy: -19780.5212132 eV PBE+vdW (tier 2 basis)
C    0.035709  -0.015685  0.159887
C    0.066779  -0.043067  1.680617
O    1.122997  -0.126214  2.303199
H    1.068543  -0.042395  -0.196696
H    -0.449556  0.895008  -0.219846
H    -0.504464  -0.877866  -0.255665
N    -1.133397  0.044339  2.334035
C    -2.464036  0.080835  1.774692
C    -3.357489  0.793785  2.809127
O    -3.009557  0.889157  3.983138
H    -1.097940  0.093167  3.352712
H    -2.453168  0.660942  0.839316
C    -3.031712  -1.339925  1.440031
C    -3.243952  -2.217221  2.645739
C    -4.507679  -2.311995  3.243399
C    -2.178274  -2.926630  3.216912
C    -4.704777  -3.090033  4.383732
C    -2.371257  -3.702866  4.359454
C    -3.634645  -3.786550  4.946866
H    -2.322345  -1.813297  0.746952
H    -3.975926  -1.226947  0.889144
H    -5.348144  -1.766663  2.809458
H    -1.187076  -2.865973  2.766270
H    -5.695786  -3.152456  4.833468
H    -1.530304  -4.244863  4.791855
H    -3.785226  -4.394626  5.838651
N    -4.557911  1.286469  2.384398
C    -5.139105  1.281158  1.054648
H    -5.112531  1.672402  3.142664
H    -5.803722  2.146908  0.951134
H    -5.725131  0.371144  0.849054
H    -4.362754  1.371662  0.285789
