32
Energy: -19780.3381043 eV PBE+vdW (tier 2 basis)
C    0.112332  0.455058  0.524411
C    -0.133984  -0.036998  1.934607
O    0.795048  -0.273197  2.704261
H    0.036200  1.551927  0.493391
H    -0.586578  0.022853  -0.198288
H    1.138362  0.184681  0.258493
N    -1.428556  -0.194521  2.393827
C    -2.739991  -0.015702  1.791821
C    -3.080948  -1.093688  0.736922
O    -2.247374  -1.566551  -0.029064
H    -1.426731  -0.503771  3.360464
H    -3.439998  -0.133040  2.630622
C    -3.009822  1.402576  1.206461
C    -3.050982  2.464907  2.274870
C    -1.882224  3.086145  2.735663
C    -4.271035  2.820457  2.867188
C    -1.932411  4.031528  3.760658
C    -4.326193  3.766379  3.890710
C    -3.153600  4.374135  4.342685
H    -3.973967  1.373961  0.678438
H    -2.252695  1.629305  0.446522
H    -0.920394  2.829402  2.292643
H    -5.193920  2.354687  2.514610
H    -1.011491  4.501877  4.105011
H    -5.286538  4.033196  4.332217
H    -3.192265  5.114311  5.141610
N    -4.394492  -1.477697  0.673719
C    -5.502571  -1.090862  1.531732
H    -4.572332  -2.160498  -0.056148
H    -5.742914  -0.020110  1.453920
H    -5.315576  -1.330655  2.588803
H    -6.390205  -1.650855  1.219459
