32
Energy: -19780.5767175 eV PBE+vdW (tier 2 basis)
C    0.182805  -0.408681  0.634402
C    -0.064550  -0.715104  2.098739
O    0.773800  -1.279387  2.796614
H    -0.081855  0.620876  0.359908
H    -0.400120  -1.085401  -0.004686
H    1.246309  -0.570065  0.439516
N    -1.268993  -0.329999  2.648477
C    -2.461717  0.197740  1.996611
C    -3.039829  1.294319  2.918797
O    -3.957370  1.059149  3.701937
H    -1.374909  -0.627725  3.616417
H    -2.148631  0.645148  1.044161
C    -3.533907  -0.877967  1.707503
C    -3.049271  -1.909148  0.724224
C    -2.354771  -3.048225  1.154346
C    -3.219925  -1.714165  -0.654183
C    -1.826678  -3.954574  0.234204
C    -2.699076  -2.620510  -1.577666
C    -1.993398  -3.741646  -1.135152
H    -4.427489  -0.367723  1.320507
H    -3.828607  -1.337063  2.660322
H    -2.213327  -3.219085  2.222031
H    -3.768177  -0.838061  -1.006671
H    -1.281080  -4.828581  0.589475
H    -2.844892  -2.452627  -2.644924
H    -1.581725  -4.449389  -1.854370
N    -2.459885  2.528933  2.844171
C    -1.296852  2.928597  2.068818
H    -2.825919  3.184211  3.527820
H    -1.130882  3.999604  2.224457
H    -1.453066  2.775940  0.991380
H    -0.386778  2.391550  2.373598
