32
Energy: -19780.5164944 eV PBE+vdW (tier 2 basis)
C    -0.777365  1.968820  -0.205253
C    -0.000637  1.114149  0.772208
O    1.214167  0.958271  0.672926
H    -0.107294  2.209284  -1.035031
H    -1.090689  2.907824  0.271927
H    -1.664715  1.445371  -0.578916
N    -0.656365  0.523021  1.839454
C    -2.063343  0.341260  2.178332
C    -2.779557  -0.681424  1.263567
O    -2.752293  -0.599169  0.038315
H    -0.008431  -0.050065  2.372584
H    -2.046932  -0.067230  3.200438
C    -2.894197  1.649956  2.248397
C    -4.252137  1.408175  2.860401
C    -5.370602  1.171353  2.049478
C    -4.411515  1.348265  4.252219
C    -6.612354  0.875188  2.612583
C    -5.652082  1.053703  4.819336
C    -6.756660  0.812510  3.999785
H    -3.012490  2.064698  1.240893
H    -2.320127  2.374258  2.843431
H    -5.260140  1.209655  0.964634
H    -3.553991  1.542749  4.899934
H    -7.471080  0.696227  1.965248
H    -5.758189  1.019526  5.903770
H    -7.726897  0.585110  4.440912
N    -3.456729  -1.655218  1.937127
C    -4.352960  -2.578197  1.265514
H    -3.537128  -1.560717  2.943090
H    -5.400666  -2.248930  1.342612
H    -4.259779  -3.583017  1.695401
H    -4.072137  -2.608784  0.207908
