32
Energy: -19780.4438005 eV PBE+vdW (tier 2 basis)
C    -1.318992  1.294952  -0.651533
C    -0.695732  1.540385  0.709647
O    0.202464  2.363592  0.868591
H    -0.972947  2.084965  -1.323093
H    -2.416614  1.294044  -0.630878
H    -0.990953  0.322524  -1.043927
N    -1.135954  0.789258  1.774045
C    -2.269439  -0.116610  1.880646
C    -2.192887  -1.243636  0.814543
O    -1.160063  -1.886696  0.666355
H    -0.646933  1.016052  2.633966
H    -2.110361  -0.663870  2.822759
C    -3.627043  0.626958  2.022616
C    -3.646944  1.550130  3.216113
C    -3.214881  2.878834  3.109676
C    -4.052654  1.075679  4.470981
C    -3.187481  3.710969  4.229197
C    -4.027519  1.905394  5.592089
C    -3.593218  3.226847  5.473803
H    -4.428841  -0.118146  2.141827
H    -3.836346  1.203142  1.108303
H    -2.888453  3.264806  2.143294
H    -4.396448  0.043916  4.570306
H    -2.845667  4.740800  4.127352
H    -4.351405  1.520170  6.558996
H    -3.573510  3.877220  6.347996
N    -3.333736  -1.487384  0.108052
C    -3.409384  -2.518125  -0.910548
H    -4.129340  -0.876297  0.239306
H    -4.289735  -3.155349  -0.755111
H    -2.502737  -3.127028  -0.833727
H    -3.457215  -2.084381  -1.920220
