32
Energy: -19780.8486513 eV PBE+vdW (tier 2 basis)
C    -3.528680  -0.308056  -0.546939
C    -2.330364  -0.196005  0.372184
O    -1.405438  -1.014601  0.342929
H    -3.175305  -0.305581  -1.585503
H    -4.261602  0.497579  -0.417668
H    -4.020704  -1.272729  -0.371253
N    -2.330052  0.869872  1.224701
C    -1.240973  1.108015  2.171832
C    -1.483726  0.265822  3.453352
O    -2.032119  0.729337  4.452695
H    -3.160976  1.446537  1.295949
H    -0.327640  0.745854  1.679309
C    -1.105330  2.603230  2.486898
C    0.218038  2.943213  3.133626
C    0.355191  2.989419  4.527160
C    1.345552  3.197074  2.339935
C    1.588757  3.282764  5.110286
C    2.579552  3.489602  2.920416
C    2.704590  3.533321  4.310270
H    -1.934003  2.899507  3.146142
H    -1.203103  3.156493  1.541268
H    -0.512115  2.777620  5.152284
H    1.253709  3.169500  1.252112
H    1.677427  3.315417  6.196422
H    3.443847  3.688216  2.286299
H    3.666999  3.764220  4.766962
N    -1.059902  -1.018595  3.328523
C    -1.301977  -2.020339  4.348373
H    -0.788433  -1.314438  2.389865
H    -2.147704  -2.674364  4.085978
H    -1.539105  -1.504069  5.284325
H    -0.408410  -2.640835  4.492269
