32
Energy: -19780.5947042 eV PBE+vdW (tier 2 basis)
C    -3.426906  -0.348396  -0.659807
C    -2.169543  -0.337729  0.191291
O    -1.243794  -1.119351  0.012905
H    -3.159692  -0.055151  -1.683377
H    -4.217320  0.320122  -0.295736
H    -3.814205  -1.372964  -0.705078
N    -2.143649  0.608943  1.193030
C    -0.941304  0.871731  1.979026
C    -0.734497  -0.103169  3.158836
O    0.368110  -0.222957  3.680732
H    -2.874751  1.312186  1.202338
H    -0.064951  0.723221  1.332638
C    -0.996033  2.339304  2.471686
C    0.255914  2.843349  3.144547
C    0.329336  2.953220  4.537012
C    1.370688  3.215362  2.382231
C    1.489110  3.418150  5.156611
C    2.532592  3.678482  2.996883
C    2.595216  3.781303  4.388031
H    -1.851610  2.448119  3.157302
H    -1.207025  2.964324  1.589110
H    -0.528109  2.657830  5.143568
H    1.330337  3.137597  1.293926
H    1.530140  3.492155  6.243330
H    3.391711  3.961195  2.388416
H    3.503110  4.143504  4.870076
N    -1.859506  -0.742105  3.589241
C    -1.828071  -1.733108  4.646315
H    -2.678578  -0.670972  2.996088
H    -0.866106  -1.637779  5.161489
H    -1.911028  -2.755476  4.248372
H    -2.641589  -1.562940  5.363966
