32
Energy: -19780.4762876 eV PBE+vdW (tier 2 basis)
C    0.159819  0.105117  0.842857
C    0.321036  0.427500  2.314666
O    1.396604  0.330285  2.901772
H    -0.688314  -0.567037  0.654694
H    1.084013  -0.361778  0.493523
H    -0.020966  1.019042  0.259033
N    -0.799179  0.862570  2.983064
C    -2.140484  1.039046  2.457130
C    -2.310614  2.122745  1.368342
O    -3.087794  1.912106  0.438038
H    -0.649030  0.993451  3.979878
H    -2.470959  0.120471  1.948395
C    -3.139724  1.320696  3.604831
C    -3.175394  0.223447  4.640149
C    -2.594061  0.406648  5.900821
C    -3.766760  -1.014340  4.349738
C    -2.592969  -0.620374  6.847061
C    -3.769612  -2.041042  5.291931
C    -3.179328  -1.848366  6.543564
H    -4.127713  1.448850  3.141577
H    -2.887159  2.277290  4.086788
H    -2.145370  1.370464  6.151316
H    -4.233480  -1.173290  3.375819
H    -2.133979  -0.458330  7.822213
H    -4.236913  -2.995717  5.050325
H    -3.180711  -2.652119  7.279345
N    -1.625504  3.301143  1.461330
C    -0.716019  3.798596  2.485613
H    -1.833618  3.920579  0.684283
H    -1.119951  3.658963  3.496152
H    -0.592864  4.876318  2.329568
H    0.274481  3.326344  2.440933
