37
Energy: -574593.3803663  eV PBE+vdW (tier 2 basis)
C    -4.938154  -0.500261  2.157906
C    -3.666226  0.118992  2.644993
O    -2.641315  0.228946  1.975470
H    -5.641492  0.311182  1.902503
H    -5.423637  -1.134411  2.910203
H    -4.734832  -1.073616  1.248720
N    -3.682581  0.608097  3.964852
C    -2.548827  1.059672  4.702024
C    -2.033605  2.500877  4.155985
O    -2.082914  3.354586  5.083132
H    -4.567589  0.544602  4.468885
H    -2.889103  1.270290  5.722998
C    -1.299108  0.117266  4.776821
C    -1.569115  -1.118269  5.649575
C    -0.290110  -1.992722  5.772857
N    -0.552412  -3.172182  6.589699
C    -0.092254  -4.432274  6.374202
N    0.853337  -4.670102  5.463245
N    -0.614898  -5.433592  7.087918
H    -0.472931  0.704888  5.203189
H    -1.009521  -0.164630  3.755728
H    -2.377991  -1.727960  5.222291
H    -1.884101  -0.807818  6.658009
H    0.523034  -1.399763  6.221438
H    0.034837  -2.324372  4.777907
H    -1.021704  -3.021082  7.480616
H    1.093128  -5.622913  5.202926
H    1.502119  -3.949510  5.167202
H    -1.487315  -5.334649  7.597675
H    -0.164532  -6.344127  7.131044
N    -1.642900  2.607051  2.911518
C    -1.163341  3.823852  2.247180
H    -1.771136  1.742760  2.350431
H    -0.917542  3.558126  1.213187
H    -0.248014  4.199922  2.723408
H    -1.944348  4.596323  2.216952
Hg    -1.603766  5.624367  5.141660
