37
Energy: -574592.9317957  eV PBE+vdW (tier 2 basis)
C    -0.117728  0.287733  -0.052785
C    -0.014524  0.138122  1.422127
O    1.042934  0.398977  2.077933
H    -1.138044  0.224463  -0.437694
H    0.463410  -0.528475  -0.515223
H    0.346598  1.231535  -0.363094
N    -1.029847  -0.296371  2.214361
C    -2.490721  -0.319390  2.054213
C    -2.890107  -1.253791  0.853415
O    -3.323946  -0.795351  -0.196640
H    -0.707619  -0.468073  3.172336
H    -2.828020  -0.823385  2.972059
C    -3.262066  1.028252  2.061555
C    -3.140407  2.014283  0.895116
C    -4.151391  3.178884  1.111227
N    -4.085690  4.230376  0.105236
C    -5.061320  4.593343  -0.767333
N    -5.013854  5.811766  -1.311333
N    -6.047479  3.750923  -1.082113
H    -2.987690  1.520888  3.007473
H    -4.316436  0.732591  2.179984
H    -3.368548  1.523943  -0.062374
H    -2.122827  2.427729  0.826932
H    -3.949866  3.651836  2.085944
H    -5.179105  2.797746  1.160339
H    -3.288850  4.861057  0.155571
H    -5.614700  6.066735  -2.090463
H    -4.464947  6.561722  -0.902132
H    -6.862955  4.069916  -1.597263
H    -5.978487  2.754966  -0.914453
N    -2.742449  -2.583056  1.087098
C    -3.223004  -3.598876  0.163534
H    -2.509536  -2.887124  2.031869
H    -2.638211  -4.514260  0.317646
H    -3.136556  -3.225755  -0.863548
H    -4.282888  -3.841858  0.353330
Hg    3.274537  0.046203  1.474885
