37
Energy: -574593.5465619  eV PBE+vdW (tier 2 basis)
C    -1.613524  2.059778  0.329129
C    -1.897891  0.794991  1.073832
O    -2.517246  -0.102321  0.402175
H    -0.980709  2.751593  0.896726
H    -2.567202  2.542574  0.068745
H    -1.119187  1.810394  -0.621772
N    -1.498642  0.689758  2.356350
C    -1.323481  -0.520437  3.193088
C    -2.597821  -0.824538  4.026599
O    -3.509125  -1.618100  3.578032
H    -1.070738  1.538169  2.725019
H    -1.213350  -1.381185  2.512302
C    0.006434  -0.415939  3.981606
C    0.384081  -1.708145  4.740013
C    1.889251  -1.923914  5.002139
N    2.445354  -1.129550  6.101631
C    3.461167  -1.533604  6.906341
N    4.132898  -2.659490  6.655167
N    3.769949  -0.797121  7.978350
H    -0.020205  0.460786  4.652116
H    0.777401  -0.193211  3.227697
H    0.077856  -2.574216  4.132953
H    -0.166197  -1.793490  5.688095
H    2.459277  -1.752768  4.073296
H    2.013629  -2.980003  5.274162
H    2.252958  -0.133038  6.121852
H    4.761357  -3.053681  7.349227
H    4.173718  -3.069176  5.729404
H    3.127963  -0.113028  8.362063
H    4.636185  -0.944944  8.487279
N    -2.763254  -0.289191  5.216528
C    -3.948298  -0.470671  6.070434
H    -1.994301  0.255916  5.601730
H    -4.833606  -0.611841  5.443599
H    -4.061788  0.420845  6.694718
H    -3.817525  -1.352484  6.711868
Hg    -3.580384  -1.716718  1.396505
