37
Energy: -574593.4567443  eV PBE+vdW (tier 2 basis)
C    -2.342990  -1.024498  0.146318
C    -1.818722  -0.755764  1.523182
O    -1.141928  -1.717621  2.033398
H    -2.743430  -2.046447  0.103226
H    -1.499096  -0.990520  -0.560708
H    -3.115160  -0.311706  -0.165082
N    -2.085271  0.437725  2.081726
C    -1.977803  0.987080  3.467059
C    -0.543959  1.417233  3.858020
O    0.307033  0.611898  4.413488
H    -2.590757  1.053271  1.447866
H    -2.550185  1.920056  3.400008
C    -2.662208  0.141379  4.570059
C    -4.200054  0.118181  4.458364
C    -4.851649  -0.587163  5.663853
N    -6.311071  -0.586889  5.545398
C    -7.188622  -0.620578  6.575471
N    -8.484803  -0.407128  6.331043
N    -6.768994  -0.836349  7.826180
H    -2.367093  0.586207  5.533081
H    -2.278057  -0.890915  4.582927
H    -4.502056  -0.390358  3.529172
H    -4.583476  1.148669  4.403658
H    -4.588214  -0.052599  6.587855
H    -4.472828  -1.619870  5.750322
H    -6.706745  -0.742368  4.622596
H    -9.195834  -0.630002  7.020965
H    -8.806391  0.010596  5.464623
H    -7.397495  -0.701883  8.612623
H    -5.903090  -1.323468  8.022923
N    -0.147012  2.669784  3.737590
C    -0.856831  3.893640  3.354261
H    0.821281  2.816927  4.046528
H    -1.813646  3.679371  2.873060
H    -0.220427  4.445402  2.650278
H    -1.015680  4.519805  4.242828
Hg    0.296267  -1.401098  3.627842
