37
Energy: -574592.9586952  eV PBE+vdW (tier 2 basis)
C    0.289314  0.493010  0.420745
C    0.040039  0.494767  1.885928
O    0.872303  0.926251  2.746057
H    -0.489213  -0.008377  -0.159947
H    1.247129  -0.012381  0.224025
H    0.396154  1.529975  0.069197
N    -1.127815  0.076143  2.439602
C    -2.473651  0.007263  1.844694
C    -2.608296  -1.274031  0.938755
O    -3.103232  -1.181521  -0.182033
H    -1.095601  0.084830  3.463963
H    -3.135921  -0.149815  2.710316
C    -2.930145  1.286698  1.096661
C    -4.417302  1.654840  1.250341
C    -5.496029  0.741876  0.620445
N    -5.479716  0.669090  -0.836671
C    -6.355931  1.259028  -1.688489
N    -6.381901  0.848700  -2.962276
N    -7.171091  2.229090  -1.275330
H    -2.650203  1.202674  0.037548
H    -2.362050  2.129981  1.513786
H    -4.535913  2.670828  0.844573
H    -4.669602  1.733709  2.319585
H    -6.485755  1.085743  0.946446
H    -5.403663  -0.291023  0.986580
H    -4.787029  0.041843  -1.243568
H    -5.976045  -0.037074  -3.246670
H    -6.924388  1.342591  -3.665992
H    -7.042106  2.707380  -0.391829
H    -7.927414  2.566744  -1.864081
N    -2.187184  -2.441794  1.475559
C    -2.356643  -3.730512  0.818916
H    -1.916216  -2.450614  2.457748
H    -1.574128  -4.411623  1.174788
H    -2.304875  -3.596565  -0.267006
H    -3.332740  -4.178102  1.071331
Hg    3.186534  0.920203  2.686279
