37
Energy: -574593.5765728  eV PBE+vdW (tier 2 basis)
C    -0.962213  0.061797  0.126192
C    -0.562738  -0.236814  1.535949
O    0.040631  -1.361405  1.692467
H    -1.682199  0.884458  0.050418
H    -1.390392  -0.844395  -0.325969
H    -0.055685  0.298866  -0.453357
N    -0.840770  0.669480  2.489589
C    -0.953586  0.621727  3.986923
C    0.396012  0.845627  4.720093
O    1.257499  -0.090697  4.947163
H    -1.257690  1.513718  2.100640
H    -1.551231  1.519084  4.199394
C    -1.779291  -0.578749  4.510515
C    -2.339745  -0.361160  5.930360
C    -3.349164  -1.459270  6.318793
N    -3.931028  -1.190668  7.635319
C    -4.520001  -2.109380  8.436584
N    -4.846921  -1.767952  9.685647
N    -4.744445  -3.353266  7.999807
H    -1.199997  -1.517299  4.480241
H    -2.607743  -0.717445  3.800145
H    -2.849144  0.616210  5.964152
H    -1.529681  -0.331981  6.674433
H    -2.845690  -2.436140  6.362544
H    -4.139451  -1.517826  5.550649
H    -4.094317  -0.219339  7.884816
H    -4.470828  -0.938244  10.131188
H    -5.471439  -2.341756  10.243945
H    -5.042695  -4.079595  8.644058
H    -4.844884  -3.562086  7.013682
N    0.646616  2.047268  5.197843
C    1.868436  2.450186  5.907921
H    -0.080293  2.757065  5.108977
H    1.700556  2.402115  6.992672
H    2.102172  3.483112  5.627962
H    2.690561  1.782114  5.638216
Hg    1.277779  -1.618358  3.424034
