37
Energy: -574593.0341118  eV PBE+vdW (tier 2 basis)
C    -0.920907  1.636447  0.526743
C    -0.256554  0.718138  1.489561
O    0.994671  0.737003  1.722179
H    -0.664189  2.674211  0.788872
H    -2.010251  1.551730  0.497850
H    -0.523400  1.450517  -0.482366
N    -0.915988  -0.260162  2.165358
C    -2.192629  -0.904359  1.830978
C    -2.934850  -1.101562  3.206374
O    -3.024374  -2.218087  3.712030
H    -0.305793  -0.783694  2.801920
H    -2.773092  -0.206080  1.213098
C    -2.001343  -2.234315  1.069138
C    -3.268823  -2.795125  0.383507
C    -4.137415  -3.811578  1.152745
N    -3.523058  -5.131544  1.287812
C    -3.389173  -5.860545  2.427222
N    -3.235128  -7.183665  2.323892
N    -3.392878  -5.256971  3.616022
H    -1.542504  -2.974641  1.740653
H    -1.261951  -2.029809  0.282118
H    -2.959110  -3.259428  -0.563792
H    -3.939841  -1.976431  0.081932
H    -5.067617  -3.950350  0.574070
H    -4.435816  -3.456000  2.142614
H    -3.343053  -5.633578  0.418925
H    -2.981058  -7.752621  3.127122
H    -3.474870  -7.687710  1.474825
H    -3.271384  -4.249122  3.703202
H    -3.445769  -5.798535  4.473420
N    -3.427632  0.019797  3.777524
C    -4.206592  0.017767  5.007307
H    -3.393314  0.888882  3.248090
H    -4.070095  0.982789  5.510406
H    -3.878467  -0.811844  5.642963
H    -5.282316  -0.103981  4.796153
Hg    2.456064  2.519406  1.607605
