37
Energy: -574592.9872408  eV PBE+vdW (tier 2 basis)
C    0.404747  1.451199  0.654067
C    -0.019648  0.810300  1.924565
O    0.798437  0.824935  2.909107
H    0.478617  2.542035  0.783398
H    -0.251154  1.194474  -0.184510
H    1.427813  1.111328  0.423946
N    -1.210597  0.179676  2.070596
C    -2.515762  0.738376  1.702413
C    -2.999984  1.504150  2.964182
O    -2.537634  1.212004  4.126805
H    -1.254857  -0.395014  2.913964
H    -2.350312  1.470981  0.900343
C    -3.502925  -0.327166  1.156271
C    -3.871442  -1.510549  2.071001
C    -4.826580  -2.467471  1.329470
N    -5.212452  -3.608465  2.160860
C    -5.693063  -4.789825  1.699191
N    -5.868862  -5.795291  2.564426
N    -5.967236  -4.959649  0.405325
H    -3.045421  -0.703037  0.229080
H    -4.418932  0.197629  0.848616
H    -4.354675  -1.150547  2.993843
H    -2.974814  -2.076868  2.366023
H    -4.330965  -2.856685  0.427490
H    -5.726708  -1.914887  1.006206
H    -5.306389  -3.451069  3.160994
H    -5.454184  -5.787535  3.490549
H    -6.381993  -6.633122  2.304264
H    -6.184487  -5.880458  0.034748
H    -6.121514  -4.177782  -0.220214
N    -3.930253  2.445663  2.886071
C    -4.732108  2.890738  1.748593
H    -4.140664  2.893032  3.784563
H    -5.753742  2.490325  1.823328
H    -4.283850  2.589981  0.798197
H    -4.797133  3.986188  1.785775
Hg    -0.298521  1.236332  4.837596
