37
Energy: -574593.4777621  eV PBE+vdW (tier 2 basis)
C    -0.420490  0.078036  -0.130197
C    -0.277633  -0.223181  1.328762
O    0.888706  -0.032061  1.812864
H    -1.462682  0.043219  -0.468465
H    0.180918  -0.646260  -0.700044
H    0.002368  1.070815  -0.338442
N    -1.353453  -0.666503  2.006705
C    -1.521950  -0.822384  3.461117
C    -0.942080  -2.166473  3.988379
O    0.166093  -2.144961  4.653592
H    -2.191787  -0.783298  1.440604
H    -0.888882  -0.061237  3.946719
C    -2.975235  -0.533118  3.910821
C    -3.330878  0.967133  3.958138
C    -4.797985  1.180248  4.389781
N    -5.194984  2.591254  4.369889
C    -5.840162  3.272580  5.348175
N    -6.579518  4.333964  5.017459
N    -5.737236  2.907689  6.630285
H    -3.099354  -0.971901  4.912794
H    -3.680194  -1.068461  3.257312
H    -3.177815  1.424921  2.968054
H    -2.662961  1.493805  4.656193
H    -4.970335  0.780343  5.396583
H    -5.472618  0.623344  3.719343
H    -5.213427  3.038134  3.456781
H    -6.913863  4.483726  4.071214
H    -6.885889  5.003356  5.717416
H    -6.343820  3.314979  7.335300
H    -4.970558  2.339941  6.967379
N    -1.520965  -3.343325  3.848880
C    -2.823126  -3.717618  3.288977
H    -0.985059  -4.110599  4.268172
H    -3.607538  -3.662279  4.055638
H    -2.747047  -4.756094  2.948258
H    -3.081316  -3.089662  2.432085
Hg    1.625757  -0.771070  3.754482
