37
Energy: -574593.0879339  eV PBE+vdW (tier 2 basis)
C    0.226048  0.126454  0.845717
C    0.321800  0.579385  2.258461
O    1.125140  0.102224  3.115318
H    -0.267922  0.847577  0.186688
H    -0.317787  -0.831420  0.805945
H    1.234083  -0.070803  0.456610
N    -0.518895  1.521629  2.776694
C    -1.800385  1.921482  2.244955
C    -1.716314  3.373347  1.536577
O    -2.284396  3.377566  0.448353
H    -0.284934  1.794882  3.735507
H    -2.044794  1.264461  1.405732
C    -2.954468  1.888730  3.278772
C    -4.332349  2.197136  2.661440
C    -5.477706  1.962708  3.662039
N    -6.771108  2.230487  3.030500
C    -7.942632  2.443634  3.677508
N    -9.006869  2.834850  2.966431
N    -8.032591  2.285583  4.998478
H    -2.742767  2.575864  4.111430
H    -2.953027  0.869499  3.698104
H    -4.486198  1.555495  1.779145
H    -4.375022  3.238215  2.310691
H    -5.373038  2.630804  4.531005
H    -5.448801  0.921612  4.031199
H    -6.829676  2.122152  2.020650
H    -9.938723  2.849895  3.372006
H    -8.921274  3.182657  2.016475
H    -8.867168  2.570332  5.502952
H    -7.353585  1.746638  5.522757
N    -1.138742  4.422819  2.118758
C    -0.442915  4.531385  3.402579
H    -1.167818  5.267455  1.544833
H    -0.403138  5.593358  3.667445
H    0.589387  4.163912  3.337871
H    -0.988905  4.025158  4.207446
Hg    3.279641  -0.736037  2.767858
