37
Energy: -574593.0608213  eV PBE+vdW (tier 2 basis)
C    -0.979495  2.130124  0.263225
C    -0.658071  1.424458  1.543338
O    0.463614  1.392094  2.052215
H    -1.492533  3.075426  0.512075
H    -1.647622  1.552328  -0.387863
H    -0.051058  2.373532  -0.261259
N    -1.724517  0.777490  2.178104
C    -1.669300  -0.067515  3.333045
C    -1.223506  0.699143  4.653258
O    -2.110352  0.532860  5.548115
H    -2.631106  0.841117  1.712942
H    -2.714092  -0.335855  3.543809
C    -0.958754  -1.482947  3.214818
C    0.523234  -1.568118  2.854664
C    1.069463  -3.025790  2.853791
N    0.788355  -3.762055  1.625171
C    0.736773  -5.117063  1.510332
N    0.372885  -5.646895  0.338791
N    1.019588  -5.903267  2.549847
H    -1.575072  -2.021387  2.479377
H    -1.145629  -1.964834  4.186650
H    1.136593  -1.030086  3.589324
H    0.743392  -1.105614  1.883177
H    0.657839  -3.593227  3.700427
H    2.161512  -2.951913  2.996579
H    0.923061  -3.256867  0.751218
H    0.504802  -6.635313  0.140776
H    -0.060584  -5.092582  -0.392447
H    1.595916  -5.584110  3.320567
H    0.849311  -6.904427  2.504730
N    -0.098634  1.367647  4.705462
C    0.408535  2.147149  5.837809
H    0.407023  1.405802  3.798143
H    1.371906  2.576097  5.541264
H    0.580680  1.507939  6.714140
H    -0.264653  2.982027  6.080402
Hg    -2.355181  1.369980  7.682560
