37
Energy: -574592.5070455  eV PBE+vdW (tier 2 basis)
C    -0.327984  -1.747920  0.671988
C    -1.303949  -1.928808  1.773980
O    -1.431636  -3.097492  2.285220
H    -0.290707  -2.643740  0.043333
H    0.670975  -1.625694  1.125793
H    -0.530221  -0.860983  0.064482
N    -2.030629  -0.923260  2.325426
C    -2.834030  0.101918  1.625428
C    -3.548133  -0.601612  0.443613
O    -3.589946  -1.868680  0.369754
H    -2.420120  -1.194846  3.229741
H    -3.669816  0.284080  2.323545
C    -2.204887  1.513366  1.459249
C    -0.968760  1.706152  0.568835
C    -0.558682  3.177218  0.353187
N    0.043692  3.795411  1.538394
C    0.258807  5.129888  1.687976
N    0.760378  5.574216  2.845377
N    -0.048298  5.985311  0.713202
H    -1.988396  1.856262  2.481774
H    -3.017751  2.179436  1.122501
H    -1.144991  1.301182  -0.439254
H    -0.106956  1.153607  0.972528
H    -1.433322  3.779049  0.062319
H    0.157432  3.203485  -0.486600
H    0.601497  3.194178  2.140568
H    1.091039  6.530211  2.946572
H    0.795981  4.993286  3.676558
H    -0.153294  5.689213  -0.250444
H    -0.016341  6.988905  0.870968
N    -4.172463  0.134425  -0.472323
C    -5.065666  -0.381974  -1.507723
H    -3.987212  1.136527  -0.484192
H    -4.524723  -0.466715  -2.463360
H    -5.894947  0.323365  -1.639274
H    -5.434131  -1.369737  -1.219420
Hg    -3.563043  -3.751690  1.915926
