37
Energy: -574593.2713955  eV PBE+vdW (tier 2 basis)
C    0.148730  0.407267  0.198882
C    -0.123552  -0.861183  0.944285
O    0.551033  -1.876657  0.538289
H    -0.627048  1.167142  0.346973
H    0.252553  0.186285  -0.872015
H    1.123248  0.801995  0.529458
N    -1.010066  -0.828843  1.954008
C    -1.760302  -1.869130  2.726608
C    -0.955937  -2.511503  3.881918
O    -0.195309  -3.553614  3.724466
H    -1.361586  0.112135  2.121528
H    -2.536807  -1.274114  3.221975
C    -2.524116  -2.914313  1.871178
C    -3.663832  -2.272719  1.048005
C    -4.804949  -3.208776  0.611564
N    -4.474453  -4.057197  -0.541951
C    -5.256487  -5.087157  -0.962354
N    -4.882404  -5.791192  -2.034479
N    -6.362849  -5.423511  -0.295712
H    -2.944677  -3.641369  2.583184
H    -1.849336  -3.489419  1.218417
H    -3.263522  -1.738117  0.172598
H    -4.150316  -1.500504  1.663775
H    -5.675023  -2.573194  0.376950
H    -5.086226  -3.863423  1.449454
H    -3.927686  -3.616503  -1.277581
H    -5.513737  -6.448506  -2.481997
H    -3.960682  -5.696987  -2.444492
H    -6.869801  -6.273389  -0.525172
H    -6.834986  -4.777123  0.325129
N    -1.090171  -2.091343  5.124084
C    -1.972340  -1.091225  5.735232
H    -0.516364  -2.618928  5.792881
H    -2.774115  -1.596972  6.290400
H    -2.400678  -0.413630  4.992941
H    -1.373457  -0.506041  6.444850
Hg    0.881247  -3.540240  1.869721
