37
Energy: -574592.9222300  eV PBE+vdW (tier 2 basis)
C    -1.023785  -0.701649  -0.117285
C    -0.641564  -0.579570  1.320556
O    0.537723  -0.825769  1.756136
H    -2.095582  -0.559296  -0.292580
H    -0.728498  -1.689162  -0.497604
H    -0.484104  0.067034  -0.695964
N    -1.582362  -0.228498  2.212102
C    -1.414033  -0.039190  3.659536
C    -2.208756  -1.188144  4.359327
O    -3.405562  -1.019939  4.616928
H    -2.536314  -0.159637  1.852870
H    -0.340973  -0.132530  3.871706
C    -1.936012  1.354822  4.065923
C    -1.681903  1.751267  5.540333
C    -2.801531  1.471356  6.564509
N    -3.983503  2.309860  6.395631
C    -5.281446  1.897359  6.349710
N    -5.574782  0.647539  5.993824
N    -6.238418  2.778684  6.650728
H    -3.003618  1.436329  3.815314
H    -1.414207  2.077053  3.423413
H    -1.450489  2.826031  5.564358
H    -0.774509  1.265358  5.929460
H    -2.389351  1.697547  7.565751
H    -3.111628  0.422681  6.590662
H    -3.840840  3.315846  6.485855
H    -4.892155  0.049594  5.528227
H    -6.517735  0.284291  6.099723
H    -7.221228  2.569544  6.493167
H    -6.038458  3.638017  7.155507
N    -1.587353  -2.357518  4.635483
C    -0.170047  -2.673402  4.571363
H    -2.196823  -3.048284  5.081619
H    0.388418  -2.213751  5.404108
H    0.269963  -2.324771  3.625837
H    -0.056611  -3.759325  4.652290
Hg    2.415842  -0.677822  0.401395
