37
Energy: -574592.9543778  eV PBE+vdW (tier 2 basis)
C    0.138599  0.267970  0.563192
C    0.322799  -0.052869  2.003402
O    1.451676  -0.360580  2.507036
H    0.524359  1.284947  0.380216
H    -0.901517  0.236230  0.227166
H    0.729502  -0.426712  -0.046162
N    -0.691178  -0.083059  2.903614
C    -2.132235  -0.151352  2.709361
C    -2.698050  1.038859  3.622068
O    -2.852244  0.798807  4.811612
H    -0.370461  -0.256998  3.863138
H    -2.369411  0.050515  1.659188
C    -2.742437  -1.489422  3.180430
C    -4.271756  -1.547808  2.980499
C    -5.018120  -2.583079  3.834514
N    -4.847761  -3.966530  3.379094
C    -5.282385  -5.056873  4.063564
N    -5.066257  -6.271726  3.544324
N    -5.891877  -4.924490  5.240123
H    -2.497944  -1.618761  4.244712
H    -2.240306  -2.294592  2.624501
H    -4.522088  -1.686289  1.916831
H    -4.720077  -0.585199  3.266002
H    -6.091918  -2.323526  3.812163
H    -4.683696  -2.517332  4.881793
H    -4.671276  -4.109031  2.387279
H    -5.487896  -7.103610  3.948284
H    -4.453269  -6.416397  2.749087
H    -6.117335  -5.735568  5.808911
H    -6.265675  -4.037786  5.557741
N    -2.962964  2.233881  3.052586
C    -3.014528  2.607717  1.643288
H    -3.394768  2.891904  3.707328
H    -2.991968  3.702870  1.592040
H    -3.946328  2.273361  1.162625
H    -2.149627  2.223811  1.094164
Hg    3.545050  0.426205  1.934851
