37
Energy: -574593.1547043  eV PBE+vdW (tier 2 basis)
C    -0.950387  1.728855  0.781651
C    -0.280303  0.459782  1.176097
O    0.897828  0.149330  0.838738
H    -0.228861  2.554667  0.839021
H    -1.822773  1.983524  1.391378
H    -1.267986  1.657575  -0.270955
N    -0.923566  -0.517107  1.889512
C    -2.358461  -0.728932  2.012173
C    -2.676069  -1.017423  3.544338
O    -3.328571  -2.002492  3.855435
H    -0.316578  -1.313203  2.105945
H    -2.862554  0.213255  1.756850
C    -2.957760  -1.836915  1.114469
C    -2.358681  -3.244755  1.251887
C    -3.189108  -4.338863  0.558431
N    -4.374911  -4.710091  1.332887
C    -5.390955  -5.488057  0.879619
N    -6.444463  -5.699571  1.677069
N    -5.350580  -6.014574  -0.343515
H    -2.868299  -1.487915  0.074482
H    -4.032644  -1.849111  1.343511
H    -2.226758  -3.526536  2.308201
H    -1.357915  -3.282125  0.796917
H    -2.540750  -5.223835  0.428691
H    -3.511173  -4.011707  -0.442588
H    -4.332676  -4.563909  2.339441
H    -7.158822  -6.383285  1.442053
H    -6.591679  -5.165414  2.526886
H    -6.153921  -6.500270  -0.732116
H    -4.489787  -6.078068  -0.874449
N    -2.208822  -0.108410  4.432576
C    -2.554734  -0.143298  5.846782
H    -1.792320  0.747567  4.071697
H    -1.774879  0.384023  6.409351
H    -2.648509  -1.186446  6.170122
H    -3.515169  0.365830  6.035611
Hg    2.758870  1.548089  0.453741
