37
Energy: -574592.8950319  eV PBE+vdW (tier 2 basis)
C    -2.115800  0.744998  -1.292764
C    -1.358689  1.050392  -0.052106
O    -0.605705  2.084435  -0.046071
H    -1.422694  0.827098  -2.145798
H    -2.887724  1.510575  -1.465683
H    -2.550712  -0.259846  -1.283803
N    -1.400939  0.261575  1.050603
C    -2.625292  -0.224298  1.695897
C    -3.044312  0.905449  2.677457
O    -2.176213  1.740317  3.124518
H    -0.665853  0.484139  1.724407
H    -3.399414  -0.316014  0.922102
C    -2.449502  -1.618180  2.361932
C    -1.340728  -1.737827  3.424541
C    -1.360077  -3.042901  4.246556
N    -0.841209  -4.211440  3.529726
C    -0.318197  -5.314645  4.121907
N    0.288612  -6.231108  3.358077
N    -0.389521  -5.481057  5.442549
H    -3.416422  -1.893108  2.808244
H    -2.287384  -2.322593  1.532473
H    -1.445598  -0.931244  4.166611
H    -0.341953  -1.621950  2.976172
H    -2.385461  -3.242140  4.605523
H    -0.724920  -2.893506  5.130825
H    -1.013283  -4.286301  2.531621
H    0.594821  -6.026431  2.412692
H    0.537198  -7.144849  3.727261
H    0.136476  -6.217440  5.904734
H    -1.059317  -4.981173  6.015401
N    -4.290398  1.011211  3.117559
C    -5.441104  0.134030  2.916265
H    -4.443301  1.814315  3.736938
H    -5.289141  -0.541749  2.070848
H    -5.638070  -0.447858  3.828696
H    -6.320395  0.762857  2.722826
Hg    -0.784047  3.185662  1.917300
