37
Energy: -574593.1843466  eV PBE+vdW (tier 2 basis)
C    0.757303  1.567654  1.314782
C    0.432560  0.181044  1.777077
O    1.456432  -0.575258  1.935471
H    1.465673  1.510716  0.476068
H    1.274446  2.099246  2.128332
H    -0.130046  2.131825  1.004261
N    -0.856476  -0.136150  1.988418
C    -1.585154  -1.428868  2.182369
C    -1.440480  -1.965252  3.629762
O    -0.531520  -2.812700  3.978186
H    -1.478349  0.652816  1.823179
H    -2.636719  -1.131001  2.082381
C    -1.285105  -2.468091  1.077266
C    -2.270587  -3.648661  0.921666
C    -3.560516  -3.332902  0.117992
N    -4.044246  -4.479165  -0.659681
C    -5.223637  -5.128288  -0.529121
N    -5.744995  -5.752019  -1.586254
N    -5.870500  -5.144336  0.645202
H    -0.277699  -2.896925  1.212868
H    -1.222971  -1.909994  0.131015
H    -2.514490  -4.100448  1.895188
H    -1.723960  -4.428564  0.373922
H    -3.360218  -2.523289  -0.600625
H    -4.381480  -2.985097  0.757529
H    -3.531228  -4.685708  -1.512969
H    -6.472816  -6.453116  -1.481813
H    -5.453422  -5.538771  -2.534975
H    -6.821849  -5.495335  0.700437
H    -5.366704  -5.074129  1.520054
N    -2.307440  -1.610147  4.559533
C    -3.502348  -0.759334  4.454383
H    -2.105336  -1.995194  5.487646
H    -4.061017  -0.851182  5.390368
H    -4.154920  -1.079755  3.633759
H    -3.215241  0.292386  4.324570
Hg    1.415052  -2.411009  3.077757
