19
Energy: -33553.6539673 eV PBE+vdW (tier 2 basis)
N    0.493581  -1.524640  2.743034
C    -0.050469  -0.680206  1.647067
C    0.747958  0.624751  1.655376
O    1.637742  0.881364  2.476452
H    1.308384  -2.039304  2.400624
H    -0.193776  -2.234437  3.005876
H    0.162222  -1.124029  0.659632
C    -1.599107  -0.485400  1.700291
C    -2.287567  -0.478301  3.092553
C    -1.389929  0.130069  4.143524
O    -0.804471  1.236589  3.866075
O    -1.028932  -0.551854  5.162341
H    -2.050817  -1.291741  1.108999
H    -1.819285  0.446432  1.167749
H    -2.569545  -1.487642  3.413153
H    -3.214159  0.106039  3.011990
O    0.449727  1.420482  0.643963
H    0.994424  2.232440  0.698764
Ca    1.008019  0.174386  4.610536
