19
Energy: -33553.2555894 eV PBE+vdW (tier 2 basis)
N    0.138109  -0.191114  -0.186131
C    -0.010676  -0.174928  1.304724
C    1.347923  -0.066246  1.989432
O    1.527497  0.018948  3.168411
H    0.213928  0.775119  -0.515326
H    -0.732924  -0.555149  -0.583362
H    -0.539233  0.742296  1.611854
C    -0.876769  -1.349000  1.844455
C    -0.252786  -2.765886  1.976851
C    0.701297  -3.015603  0.838510
O    0.277138  -3.081836  -0.367890
O    1.960185  -2.897183  1.067714
H    -1.763404  -1.394950  1.195908
H    -1.236560  -1.049756  2.836214
H    -1.067216  -3.500494  1.968529
H    0.295757  -2.857219  2.920090
O    2.416907  -0.032904  1.072758
H    3.218019  0.052261  1.630311
Ca    1.998970  -1.728933  -0.780948
