19
Energy: -33552.022255 eV PBE+vdW (tier 2 basis)
N    0.169070  0.489506  0.217783
C    0.011081  -0.100750  1.526177
C    1.353525  -0.421168  2.195425
O    1.468497  -0.633539  3.382916
H    -0.690616  0.880076  -0.158813
H    0.603581  -0.128712  -0.464206
H    -0.456191  0.650547  2.181514
C    -0.836635  -1.406238  1.631626
C    -2.296662  -1.180275  1.185460
C    -3.082314  -2.431336  1.379867
O    -3.888990  -2.561811  2.385109
O    -2.945017  -3.435951  0.571010
H    -0.811707  -1.745115  2.677477
H    -0.378142  -2.187845  1.007501
H    -2.319811  -0.914965  0.117942
H    -2.760678  -0.379001  1.774418
O    2.373818  -0.501230  1.310981
H    3.173577  -0.723531  1.827832
Ca    -4.300311  -4.559453  1.770861
