19
Energy: -33552.5991178 eV PBE+vdW (tier 2 basis)
N    0.117338  0.040899  0.079436
C    -0.194553  -0.098077  1.490116
C    1.080374  -0.029188  2.335281
O    2.076560  -0.679508  2.245408
H    0.474801  0.963990  -0.161229
H    0.782103  -0.662838  -0.243099
H    -0.837961  0.743830  1.772149
C    -0.978038  -1.414215  1.707379
C    -1.187641  -1.889555  3.163945
C    -1.333010  -0.756219  4.139431
O    -0.637457  -0.740796  5.219907
O    -2.022265  0.288860  3.823908
H    -0.457964  -2.218213  1.168515
H    -1.939023  -1.262583  1.202221
H    -0.360325  -2.518281  3.512889
H    -2.097930  -2.505996  3.208816
O    1.068830  1.066220  3.314855
H    2.003808  1.084153  3.610945
Ca    -0.614462  1.414581  5.011563
