19
Energy: -33553.1436208 eV PBE+vdW (tier 2 basis)
N    0.844413  -1.375290  0.751053
C    0.194562  -0.200524  1.275674
C    1.109453  0.766771  2.033247
O    2.189113  0.466828  2.579572
H    1.026050  -2.087607  1.454532
H    1.657775  -1.190341  0.170192
H    -0.170341  0.394162  0.423282
C    -1.075000  -0.598802  2.109049
C    -0.996214  -0.636330  3.652476
C    0.298788  -1.175735  4.203653
O    0.909038  -0.533465  5.131004
O    0.884835  -2.173793  3.638630
H    -1.349912  -1.585237  1.716027
H    -1.892260  0.083756  1.848655
H    -1.819895  -1.266082  4.022233
H    -1.146384  0.357260  4.091770
O    0.663512  2.012742  2.035998
H    1.282886  2.587875  2.531643
Ca    2.746582  -1.105189  4.099309
