19
Energy: -33552.7198227 eV PBE+vdW (tier 2 basis)
N    0.386782  -0.625910  -0.054621
C    0.061491  -0.243622  1.389002
C    1.324714  0.276535  2.126155
O    1.327439  1.399495  2.566890
H    -0.526483  -0.657769  -0.526588
H    0.834617  0.207619  -0.455438
H    -0.567627  0.655121  1.341572
C    -0.784704  -1.297232  2.131280
C    -0.135872  -2.632721  2.587473
C    0.598457  -3.217064  1.422585
O    -0.024485  -3.696411  0.417626
O    1.878576  -3.015796  1.326723
H    -1.657659  -1.528162  1.501733
H    -1.180047  -0.799113  3.026888
H    -0.935391  -3.310508  2.910049
H    0.554844  -2.477088  3.424184
O    2.406255  -0.520688  2.226309
H    2.228655  -1.465001  1.978217
Ca    1.510393  -2.722735  -0.797281
