19
Energy: -33553.6738626 eV PBE+vdW (tier 2 basis)
N    0.234188  0.156146  0.276938
C    -0.631840  -0.239173  1.448969
C    -0.050266  0.681103  2.589081
O    0.936446  1.366663  2.251268
H    0.891091  0.871755  0.835518
H    -0.278151  0.618588  -0.477788
H    -1.662910  0.074819  1.238735
C    -0.574533  -1.762008  1.721182
C    -1.917479  -2.402208  2.142114
C    -2.387433  -1.787675  3.439060
O    -1.789981  -2.101859  4.526611
O    -3.241835  -0.833686  3.408683
H    0.187868  -1.980134  2.481590
H    -0.255613  -2.270367  0.799015
H    -1.754457  -3.477395  2.286128
H    -2.678982  -2.256141  1.366308
O    -0.611930  0.672111  3.725294
H    0.768145  -0.625557  -0.112697
Ca    -2.097328  -0.001981  5.119990
