19
Energy: -33552.2072398 eV PBE+vdW (tier 2 basis)
N    0.279338  -0.274861  -0.275437
C    0.062088  -0.225562  1.163069
C    1.164213  0.389069  2.043132
O    1.070037  0.515550  3.244112
H    0.186646  0.647940  -0.696573
H    1.221080  -0.601816  -0.493300
H    -0.822044  0.406474  1.347825
C    -0.245937  -1.639642  1.702375
C    -1.486555  -2.203969  1.008654
C    -1.722020  -3.657697  1.205080
O    -0.739766  -4.493827  1.342224
O    -2.929607  -4.133316  1.218975
H    -0.384334  -1.589315  2.789695
H    0.617407  -2.293433  1.509565
H    -1.350305  -2.044876  -0.081612
H    -2.406089  -1.668863  1.281041
O    2.255470  0.765908  1.329575
H    2.889243  1.142439  1.972291
Ca    -2.143485  -6.085462  1.505228
