19
Energy: -33552.1062372 eV PBE+vdW (tier 2 basis)
N    -0.435862  0.010030  -0.033591
C    -0.301628  0.088172  1.401222
C    1.172269  0.309226  1.728847
O    2.091541  -0.047065  1.023504
H    -1.309043  -0.402254  -0.350089
H    0.369436  -0.428618  -0.477332
H    -0.859072  0.958497  1.783363
C    -0.829726  -1.138799  2.208962
C    -0.074861  -2.439456  1.871839
C    -0.726834  -3.638582  2.464994
O    -0.093170  -4.402202  3.298247
O    -1.950545  -3.950613  2.162651
H    -1.894881  -1.258677  1.965191
H    -0.759491  -0.922436  3.285084
H    0.968978  -2.408099  2.204137
H    -0.081824  -2.567503  0.774847
O    1.332100  0.904454  2.934865
H    2.294868  0.991692  3.082574
Ca    -1.811662  -5.652880  3.432286
