19
Energy: -33553.7112285 eV PBE+vdW (tier 2 basis)
N    0.325497  -0.436550  0.187784
C    0.011433  -0.273060  1.621224
C    1.373822  -0.433808  2.347385
O    1.541581  -0.286776  3.572468
H    0.141653  0.403577  -0.357574
H    -0.179313  -1.212206  -0.238798
H    -0.319605  0.757971  1.819891
C    -1.076612  -1.262984  2.129447
C    -2.099647  -0.677414  3.130608
C    -1.389379  -0.249495  4.387810
O    -1.053720  0.979596  4.539790
O    -0.962708  -1.144336  5.201603
H    -0.610936  -2.157253  2.565946
H    -1.643972  -1.600433  1.251547
H    -2.829407  -1.459740  3.373961
H    -2.625277  0.179822  2.692869
O    2.356378  -0.724814  1.554572
H    1.862356  -0.724277  0.631035
Ca    0.730854  0.191180  5.559433
