19
Energy: -33552.0518132 eV PBE+vdW (tier 2 basis)
N    0.175090  0.419667  0.146400
C    -0.008029  -0.065115  1.494319
C    1.380484  -0.264595  2.106176
O    2.331322  -0.701666  1.498482
H    -0.690572  0.597006  -0.355272
H    0.795936  -0.176883  -0.398922
H    -0.537637  0.700110  2.081036
C    -0.757956  -1.424216  1.670176
C    -2.209130  -1.349985  1.148005
C    -2.869628  -2.678303  1.291208
O    -3.667221  -2.925702  2.281712
O    -2.630093  -3.631750  0.445403
H    -0.765130  -1.694963  2.737149
H    -0.205443  -2.201589  1.122384
H    -2.198865  -1.086241  0.080114
H    -2.784978  -0.604043  1.710098
O    1.399756  0.056121  3.422635
H    2.306613  -0.122135  3.743661
Ca    -3.902985  -4.919951  1.564059
