19
Energy: -33552.2025468 eV PBE+vdW (tier 2 basis)
N    -0.668991  0.760340  0.708214
C    -0.127805  0.117136  1.898931
C    1.391242  0.166204  2.112304
O    1.923306  0.066661  3.196446
H    -0.559611  1.772439  0.755688
H    -0.173111  0.452612  -0.129759
H    -0.548092  0.619198  2.781722
C    -0.561934  -1.367060  1.934197
C    -2.082861  -1.530789  1.870708
C    -2.812857  -1.376439  3.160305
O    -4.023734  -1.826396  3.281231
O    -2.279870  -0.786666  4.183449
H    -0.142858  -1.849541  2.826409
H    -0.130178  -1.878379  1.061056
H    -2.393430  -2.489258  1.433672
H    -2.481043  -0.751003  1.189458
O    2.074208  0.298580  0.946025
H    3.024944  0.288950  1.174061
Ca    -4.065472  -1.136629  5.290987
