19
Energy: -33552.2568266 eV PBE+vdW (tier 2 basis)
N    -0.581265  0.297867  0.085184
C    -0.171776  0.130022  1.472519
C    1.350177  0.002898  1.529414
O    2.087018  0.148083  0.578761
H    0.220258  0.581380  -0.481341
H    -1.315664  0.994548  -0.012577
H    -0.414051  1.003882  2.104706
C    -0.883085  -1.094149  2.101084
C    -0.609608  -2.345965  1.264006
C    -1.533013  -3.485157  1.485106
O    -1.117168  -4.707735  1.348231
O    -2.783224  -3.301162  1.782055
H    -1.961288  -0.886786  2.106486
H    -0.562968  -1.228355  3.142166
H    0.420101  -2.715278  1.355547
H    -0.742791  -2.034703  0.203850
O    1.787361  -0.284363  2.781111
H    2.763744  -0.304920  2.737933
Ca    -3.080438  -5.407126  1.748863
