19
Energy: -33552.2275444 eV PBE+vdW (tier 2 basis)
N    -0.106350  -0.787427  0.055601
C    0.016454  -0.082164  1.333398
C    1.459461  0.346086  1.607159
O    1.981758  0.362615  2.700781
H    0.512768  -0.382700  -0.645327
H    -1.057965  -0.715815  -0.303059
H    -0.546856  0.874034  1.352000
C    -0.526585  -0.949435  2.481011
C    0.195040  -2.296940  2.544739
C    -0.432126  -3.323832  3.414172
O    0.285634  -4.282461  3.916679
O    -1.701098  -3.313541  3.684255
H    -1.600398  -1.108902  2.312746
H    -0.418555  -0.406283  3.428369
H    1.245538  -2.197364  2.848320
H    0.215552  -2.716420  1.517735
O    2.082954  0.759210  0.475368
H    2.977846  1.054850  0.734879
Ca    -1.437287  -5.058684  4.875731
