19
Energy: -33551.9395705 eV PBE+vdW (tier 2 basis)
N    -0.661391  -0.160944  0.069535
C    0.065918  -0.027122  1.326039
C    1.572490  -0.167951  1.194334
O    2.090104  -0.817657  0.204320
H    -2.268114  -0.915705  0.436303
H    -0.287812  -0.925924  -0.495918
H    -0.122095  0.973992  1.741177
C    -0.402017  -1.065206  2.384944
C    -1.874837  -0.903302  2.819964
C    -2.901717  -1.752626  2.058882
O    -2.967367  -1.565920  0.723450
O    -3.622180  -2.541176  2.624735
H    0.238494  -0.948143  3.269520
H    -0.226013  -2.079840  1.993646
H    -2.175948  0.154933  2.757944
H    -1.968918  -1.198721  3.870338
O    2.357201  0.310814  2.102484
H    -0.616388  0.688806  -0.492005
Ca    4.029208  -0.541705  1.081567
