19
Energy: -33553.2011111 eV PBE+vdW (tier 2 basis)
N    0.835936  -1.071171  0.458789
C    0.135244  -0.458273  1.627621
C    1.076591  -0.318277  2.823891
O    0.796942  0.168350  3.877654
H    1.320121  -0.332600  -0.058229
H    0.137604  -1.444832  -0.189922
H    -0.127960  0.589189  1.402527
C    -1.205844  -1.141419  2.013914
C    -1.325540  -2.695579  1.931927
C    0.023565  -3.360784  1.979869
O    0.815138  -3.070015  2.948234
O    0.466313  -4.008761  0.968116
H    -1.986081  -0.715351  1.370833
H    -1.426225  -0.798804  3.031664
H    -1.834653  -3.006208  1.013757
H    -1.930638  -3.039706  2.780756
O    2.405715  -0.727196  2.540743
H    2.907388  -0.486314  3.346806
Ca    2.332383  -2.890250  1.363051
