19
Energy: -33552.2679303 eV PBE+vdW (tier 2 basis)
N    -0.496996  -0.160868  0.317201
C    0.055992  -0.026893  1.658175
C    1.566197  -0.284325  1.705412
O    2.169058  -0.946143  0.889451
H    0.010720  -0.894220  -0.184765
H    -0.367169  0.697305  -0.216793
H    -0.129305  0.993358  2.024341
C    -0.636147  -1.030924  2.614326
C    -2.149913  -0.818296  2.577020
C    -2.975256  -1.942938  3.084529
O    -4.143556  -1.719705  3.605151
O    -2.579953  -3.174947  2.989603
H    -0.242615  -0.913464  3.632845
H    -0.398090  -2.051629  2.282155
H    -2.415397  -0.693812  1.503952
H    -2.471153  0.102729  3.080887
O    2.140700  0.289878  2.791078
H    3.091565  0.061343  2.766336
Ca    -4.419817  -3.811838  3.846946
