19
Energy: -33551.8686848 eV PBE+vdW (tier 2 basis)
N    -0.250177  0.174886  0.036671
C    -0.022167  0.078173  1.469630
C    1.472154  -0.053055  1.851766
O    2.277031  -0.627852  1.163193
H    0.284933  -0.555364  -0.440447
H    0.106913  1.060986  -0.321754
H    -0.428319  0.994102  1.929527
C    -0.805164  -1.149335  1.986769
C    -0.711902  -1.473539  3.501250
C    -1.328564  -0.422956  4.362123
O    -0.744081  0.728481  4.545088
O    -2.464699  -0.613615  4.942061
H    -0.429078  -2.037398  1.458442
H    -1.854178  -1.026488  1.686225
H    0.342217  -1.582935  3.798212
H    -1.230742  -2.417975  3.699438
O    1.843294  0.500591  3.044333
H    1.059913  0.883826  3.485582
Ca    -2.354122  1.316551  5.840172
