19
Energy: -33553.7929362 eV PBE+vdW (tier 2 basis)
N    0.427540  0.086771  0.346985
C    0.159155  -0.106380  1.822994
C    1.500353  -0.642136  2.392651
O    1.451290  -1.416428  3.390655
H    1.287851  0.640206  0.232673
H    0.654275  -0.898745  -0.008879
H    -0.055648  0.877044  2.263640
C    -1.029016  -1.055168  2.066935
C    -1.072481  -2.395437  1.269358
C    0.297213  -3.034878  1.168443
O    1.135387  -2.483146  0.340851
O    0.692911  -3.936634  1.954871
H    -1.965981  -0.515643  1.871525
H    -1.008404  -1.274557  3.141117
H    -1.450539  -2.224650  0.251528
H    -1.768534  -3.073254  1.774164
O    2.556712  -0.444093  1.714523
H    -0.354968  0.515948  -0.156432
Ca    2.679883  -2.808820  2.055399
