19
Energy: -33553.1759251 eV PBE+vdW (tier 2 basis)
N    1.401985  -0.870386  0.881062
C    0.121639  -0.550052  1.512495
C    0.543906  0.571757  2.469231
O    0.946653  0.440666  3.642244
H    1.366745  -0.875620  -0.133532
H    1.810829  -1.734808  1.227319
H    -0.531893  -0.071048  0.770470
C    -0.585165  -1.778569  2.103270
C    -1.919333  -1.553377  2.857392
C    -1.625471  -0.998926  4.224854
O    -0.943730  -1.716073  5.048395
O    -1.867486  0.230081  4.500970
H    0.105515  -2.321310  2.765880
H    -0.779326  -2.438879  1.246684
H    -2.414207  -2.526675  2.971853
H    -2.592235  -0.879867  2.313596
O    0.527208  1.754131  1.875742
H    0.939960  2.424594  2.456881
Ca    0.001404  0.135362  5.656194
