19
Energy: -33551.9304327 eV PBE+vdW (tier 2 basis)
N    -0.631694  0.038019  0.270780
C    0.195494  0.110033  1.468305
C    1.672114  -0.250308  1.198061
O    2.008436  -0.994950  0.312221
H    -0.351752  -0.784694  -0.271978
H    -0.456188  0.840567  -0.333680
H    0.132837  1.136220  1.865438
C    -0.346574  -0.878023  2.532663
C    -1.844214  -0.701131  2.786698
C    -2.246964  0.373139  3.733229
O    -1.438224  1.320624  4.095761
O    -3.454448  0.392824  4.207822
H    0.231804  -0.798481  3.463384
H    -0.188637  -1.898145  2.153630
H    -2.335253  -1.626380  3.117704
H    -2.315219  -0.448195  1.813332
O    2.597435  0.280550  2.046742
H    2.169007  0.891607  2.671163
Ca    -3.012913  2.165439  5.277588
