31
Energy: -16702.7416731 eV PBE+vdW (tier 2 basis)
C    1.630492  0.255370  1.657124
C    0.594517  0.810904  2.615726
O    0.886806  1.594233  3.515520
H    2.544601  0.025939  2.214733
H    1.872924  1.034996  0.921894
H    1.297077  -0.640781  1.118792
N    -0.690002  0.384010  2.396086
C    -1.855869  0.985364  3.045815
C    -1.712283  2.532843  3.037322
O    -1.524974  3.114089  1.972436
H    -0.859133  -0.142043  1.548379
H    -2.685585  0.831979  2.337689
C    -2.282457  0.273652  4.357068
C    -1.182556  0.173257  5.435532
C    -2.854454  -1.111137  4.019152
C    -1.721707  -0.116206  6.838267
H    -3.113707  0.877142  4.764110
H    -0.577626  1.090602  5.454261
H    -0.472474  -0.615063  5.140033
H    -3.699466  -1.037277  3.319968
H    -3.216361  -1.629134  4.916189
H    -2.084845  -1.746968  3.557571
H    -0.903581  -0.167953  7.568755
H    -2.265332  -1.069409  6.891017
H    -2.412556  0.672461  7.173161
N    -1.920021  3.184483  4.214689
C    -1.731909  4.621245  4.311074
H    -1.844642  2.642974  5.066966
H    -2.270140  5.002532  5.186495
H    -2.131409  5.090463  3.406114
H    -0.667296  4.890428  4.392468
