31
Energy: -16702.9467093 eV PBE+vdW (tier 2 basis)
C    -4.264744  1.130594  0.058957
C    -3.248584  0.242699  0.753433
O    -2.402282  -0.391907  0.133930
H    -4.750862  0.558086  -0.739673
H    -3.732650  1.965263  -0.415762
H    -5.031777  1.536304  0.730842
N    -3.360760  0.193433  2.127179
C    -2.340017  -0.434599  2.959614
C    -2.832768  -1.672670  3.734907
O    -2.106517  -2.227622  4.557459
H    -3.979692  0.866490  2.564551
H    -1.606165  -0.827112  2.236503
C    -1.595887  0.555446  3.893973
C    -2.388255  1.005954  5.141535
C    -1.018377  1.728310  3.094292
C    -3.723812  1.726369  4.918420
H    -0.752783  -0.034646  4.282433
H    -1.724323  1.667958  5.719331
H    -2.559080  0.126187  5.778147
H    -0.423943  1.372112  2.242043
H    -0.366065  2.341403  3.730455
H    -1.797902  2.390205  2.690619
H    -4.102318  2.135791  5.864481
H    -4.504394  1.043100  4.549878
H    -3.637851  2.571168  4.218953
N    -4.090432  -2.094553  3.429370
C    -4.665276  -3.302193  3.986138
H    -4.564125  -1.606136  2.677439
H    -4.740444  -4.099702  3.232377
H    -5.664993  -3.107147  4.397010
H    -4.004921  -3.642586  4.791163
