31
Energy: -16702.6102272 eV PBE+vdW (tier 2 basis)
C    0.517814  -1.627540  0.423982
C    0.442526  -0.459802  1.389191
O    1.461904  0.059305  1.838655
H    1.571320  -1.786795  0.180237
H    -0.040630  -1.443033  -0.502415
H    0.118269  -2.538830  0.888484
N    -0.789373  0.029927  1.761852
C    -2.165808  -0.412486  1.500127
C    -2.471136  -1.703073  2.308750
O    -2.714656  -1.629350  3.509839
H    -0.692527  0.742545  2.479038
H    -2.782807  0.332896  2.019976
C    -2.613759  -0.391876  0.017247
C    -2.131010  0.870182  -0.731497
C    -4.138737  -0.561104  -0.064047
C    -2.607385  2.212259  -0.169909
H    -2.158735  -1.243541  -0.518454
H    -2.464394  0.776865  -1.777159
H    -1.032215  0.870413  -0.763283
H    -4.472387  -0.559061  -1.110246
H    -4.660539  0.254668  0.454583
H    -4.475293  -1.501081  0.392090
H    -2.225853  2.393965  0.843903
H    -3.702584  2.285904  -0.135588
H    -2.246155  3.035863  -0.799201
N    -2.409301  -2.885014  1.630510
C    -2.633646  -4.168709  2.268141
H    -2.243437  -2.859535  0.632059
H    -1.768924  -4.833157  2.133347
H    -3.528887  -4.664886  1.867055
H    -2.778980  -3.983353  3.337372
