31
Energy: -16702.865921 eV PBE+vdW (tier 2 basis)
C    0.012711  1.038522  0.173375
C    0.094618  0.326379  1.514534
O    1.169398  0.130015  2.076745
H    1.034907  1.246984  -0.152612
H    -0.529573  1.991419  0.258592
H    -0.492073  0.431198  -0.589681
N    -1.080370  -0.100118  2.079134
C    -2.446613  0.100816  1.623202
C    -3.207681  0.783871  2.774462
O    -3.227514  0.285160  3.897875
H    -0.982163  -0.501284  3.010357
H    -2.421113  0.760790  0.744022
C    -3.149959  -1.226323  1.225932
C    -2.384521  -1.933196  0.095412
C    -4.619146  -0.974896  0.868687
C    -2.829947  -3.373991  -0.163245
H    -3.117220  -1.868617  2.123082
H    -1.313819  -1.936499  0.345676
H    -2.487061  -1.342742  -0.832160
H    -5.178155  -0.547274  1.710838
H    -5.122891  -1.907815  0.587769
H    -4.707610  -0.283984  0.015136
H    -2.209173  -3.840718  -0.939421
H    -3.873469  -3.436592  -0.500151
H    -2.736639  -3.984817  0.746057
N    -3.829489  1.953806  2.455857
C    -4.606916  2.718105  3.414030
H    -3.771631  2.280389  1.499345
H    -4.222789  3.742913  3.505770
H    -4.518394  2.215322  4.382733
H    -5.667552  2.758051  3.128338
