31
Energy: -16703.0105871 eV PBE+vdW (tier 2 basis)
C    -0.506951  -0.561632  0.180940
C    -0.708461  -0.740346  1.671027
O    -0.226243  -1.702205  2.282189
H    0.569841  -0.511452  -0.023451
H    -0.988895  0.336048  -0.225196
H    -0.897362  -1.445472  -0.338621
N    -1.445681  0.221728  2.292005
C    -1.693838  0.227491  3.733508
C    -2.915550  -0.677428  4.067076
O    -4.029004  -0.244674  4.362876
H    -1.890039  0.939097  1.731112
H    -0.811996  -0.256838  4.179944
C    -1.764155  1.667261  4.282722
C    -1.865715  1.641039  5.821167
C    -2.851292  2.539523  3.636857
C    -1.546512  2.978136  6.491962
H    -0.782956  2.108799  4.029133
H    -1.167710  0.877775  6.202921
H    -2.873258  1.306472  6.107307
H    -2.733714  2.620946  2.545228
H    -2.795981  3.566490  4.019702
H    -3.849682  2.138318  3.843490
H    -1.570136  2.880692  7.585446
H    -2.269240  3.759901  6.222193
H    -0.545471  3.339326  6.213179
N    -2.605767  -2.000371  3.986770
C    -3.601627  -3.042373  4.137469
H    -1.683989  -2.231838  3.607412
H    -4.501137  -2.593647  4.571956
H    -3.233433  -3.833228  4.804085
H    -3.867043  -3.494539  3.169594
