31
Energy: -16702.7998228 eV PBE+vdW (tier 2 basis)
C    3.206175  4.618598  3.540725
C    2.450997  3.320849  3.311646
O    3.004616  2.225640  3.348766
H    3.985274  4.710841  2.773620
H    3.709827  4.565412  4.513546
H    2.572375  5.514006  3.515822
N    1.106832  3.460365  3.072772
C    0.268349  2.324794  2.676381
C    -0.971573  2.813737  1.915914
O    -1.328178  2.293380  0.863619
H    0.754166  4.391874  2.886655
H    0.835211  1.728799  1.949852
C    -0.067305  1.384581  3.876862
C    -0.871467  0.147255  3.440224
C    -0.750515  2.095601  5.049290
C    -0.195400  -0.740424  2.392465
H    0.920345  1.040639  4.222047
H    -1.862071  0.462590  3.071702
H    -1.065948  -0.447187  4.347158
H    -0.743231  1.450060  5.937537
H    -1.804979  2.328927  4.835949
H    -0.229953  3.024735  5.322822
H    0.827419  -1.006903  2.695179
H    -0.757009  -1.674528  2.258363
H    -0.144095  -0.250200  1.412196
N    -1.638713  3.875107  2.476312
C    -2.875584  4.378402  1.902406
H    -1.441568  4.100978  3.445201
H    -3.755134  3.815501  2.251407
H    -2.819233  4.274660  0.814114
H    -3.000633  5.435913  2.162447
