31
Energy: -16702.3210764 eV PBE+vdW (tier 2 basis)
C    -0.534877  -0.401126  -0.002629
C    -0.380212  0.071067  1.435608
O    0.718322  0.222966  1.949987
H    -1.475961  -0.933502  -0.193977
H    0.309004  -1.050188  -0.255526
H    -0.497570  0.480108  -0.658610
N    -1.581978  0.272314  2.081300
C    -1.873389  1.073179  3.270647
C    -1.817892  2.579215  2.909164
O    -1.141943  3.002462  1.978268
H    -2.388424  0.168029  1.476311
H    -2.931526  0.837686  3.464104
C    -1.139526  0.717230  4.619559
C    -0.071823  1.713639  5.134361
C    -0.674619  -0.742194  4.659334
C    1.285641  1.801070  4.437792
H    -1.944514  0.795211  5.369743
H    0.089750  1.447157  6.192554
H    -0.517769  2.720976  5.160802
H    -1.491216  -1.430316  4.401833
H    -0.333421  -0.991789  5.673749
H    0.152489  -0.919227  3.963416
H    1.926395  2.509321  4.982385
H    1.196494  2.139243  3.401218
H    1.800425  0.833091  4.414276
N    -2.606575  3.427222  3.645663
C    -3.424182  3.146021  4.811839
H    -2.474712  4.400549  3.387086
H    -3.987513  2.212350  4.686379
H    -4.155730  3.953395  4.930711
H    -2.837635  3.073784  5.741714
