31
Energy: -16702.7746247 eV PBE+vdW (tier 2 basis)
C    -0.134719  0.756672  0.416503
C    -0.528765  0.105110  1.730452
O    0.167615  0.174444  2.736673
H    0.266459  1.755016  0.622473
H    -0.958431  0.835872  -0.304107
H    0.671681  0.165752  -0.039020
N    -1.733186  -0.562433  1.714499
C    -2.170942  -1.439707  2.805671
C    -2.360619  -0.634128  4.124276
O    -2.167576  -1.126382  5.230154
H    -2.173036  -0.696383  0.811383
H    -3.184529  -1.765110  2.517695
C    -1.301611  -2.711964  3.021872
C    -0.685567  -3.257769  1.717617
C    -2.113109  -3.789758  3.755456
C    -1.665963  -3.775140  0.659755
H    -0.466921  -2.415194  3.672700
H    -0.011086  -4.080096  2.002990
H    -0.033112  -2.492458  1.272050
H    -1.511568  -4.701023  3.881256
H    -3.021050  -4.066615  3.198318
H    -2.414997  -3.438722  4.747165
H    -2.271167  -4.611156  1.034124
H    -1.126388  -4.134701  -0.226671
H    -2.367227  -3.000074  0.314552
N    -2.851876  0.625864  3.945752
C    -3.002581  1.545809  5.056557
H    -2.817404  0.999790  3.004467
H    -3.828948  2.239044  4.857660
H    -2.083456  2.123960  5.240368
H    -3.225797  0.965324  5.957815
