31
Energy: -16703.0008334 eV PBE+vdW (tier 2 basis)
C    -2.800544  0.409519  0.372923
C    -1.957337  -0.033333  1.550578
O    -1.024923  -0.834125  1.422458
H    -2.139686  0.845489  -0.386491
H    -3.573878  1.141902  0.635379
H    -3.277226  -0.471206  -0.075193
N    -2.284124  0.519952  2.754234
C    -1.574123  0.177377  3.985656
C    -2.240311  -1.092828  4.577797
O    -3.125536  -1.044916  5.430505
H    -3.143406  1.051511  2.831665
H    -0.551846  -0.079576  3.668613
C    -1.507269  1.334091  4.994791
C    -0.949212  2.642215  4.386366
C    -0.647818  0.897810  6.190588
C    -1.960490  3.564946  3.698439
H    -2.530399  1.514583  5.366457
H    -0.129256  2.400252  3.690066
H    -0.481197  3.208485  5.206101
H    -0.642056  1.679141  6.961690
H    0.394962  0.726086  5.882706
H    -1.028522  -0.021595  6.650831
H    -2.817208  3.773281  4.355788
H    -2.347514  3.144817  2.761398
H    -1.497996  4.529464  3.447868
N    -1.768454  -2.241738  4.019711
C    -2.357507  -3.537370  4.298036
H    -1.171630  -2.132430  3.199318
H    -1.573140  -4.294959  4.421005
H    -3.036458  -3.859637  3.493510
H    -2.932894  -3.457206  5.226206
