31
Energy: -16702.6628718 eV PBE+vdW (tier 2 basis)
C    -0.307607  1.044017  0.184861
C    -0.260844  0.543774  1.621023
O    0.741494  0.676162  2.319587
H    0.681980  1.435977  -0.063594
H    -1.045452  1.851324  0.068354
H    -0.567668  0.248643  -0.526942
N    -1.393181  -0.046905  2.116901
C    -2.645794  -0.320896  1.427919
C    -3.746867  -0.125201  2.483153
O    -3.645476  -0.640490  3.596377
H    -1.346961  -0.343579  3.089968
H    -2.763884  0.419694  0.626886
C    -2.650447  -1.728483  0.744394
C    -3.840802  -1.943534  -0.216942
C    -2.445512  -2.890085  1.720601
C    -5.178337  -2.362756  0.402318
H    -1.753427  -1.688927  0.102842
H    -3.539144  -2.719424  -0.938052
H    -3.977750  -1.029025  -0.818498
H    -3.258513  -2.972698  2.451408
H    -1.510152  -2.772287  2.281749
H    -2.381832  -3.837317  1.166784
H    -5.947772  -2.448912  -0.376733
H    -5.544466  -1.650105  1.151737
H    -5.104081  -3.340711  0.894945
N    -4.820658  0.654779  2.161936
C    -5.100831  1.371745  0.928402
H    -5.495807  0.726155  2.917197
H    -5.959570  2.028679  1.102772
H    -5.355915  0.699142  0.096426
H    -4.258168  2.007363  0.624426
