31
Energy: -16702.4082561 eV PBE+vdW (tier 2 basis)
C    0.174902  0.687791  -0.144442
C    0.158982  -0.249776  1.047174
O    1.180241  -0.860427  1.365063
H    0.056897  1.730921  0.174638
H    -0.610939  0.472741  -0.876470
H    1.150433  0.575952  -0.625125
N    -0.967869  -0.400466  1.830316
C    -2.395267  -0.041489  1.787051
C    -3.279596  -1.296194  1.552766
O    -4.093811  -1.618209  2.418368
H    -0.749558  -1.035105  2.596225
H    -2.660483  0.200379  2.828317
C    -2.800933  1.200812  0.960532
C    -2.230882  2.474137  1.620924
C    -4.328734  1.277842  0.828295
C    -2.237922  3.708675  0.718454
H    -2.388014  1.124140  -0.055516
H    -1.203559  2.282254  1.964091
H    -2.814994  2.676509  2.533945
H    -4.736061  0.430173  0.262443
H    -4.622336  2.194257  0.301638
H    -4.814705  1.281409  1.813880
H    -1.807665  4.575813  1.236488
H    -3.252779  3.987856  0.405011
H    -1.646014  3.542236  -0.193589
N    -3.147093  -2.041717  0.415981
C    -2.268774  -1.864170  -0.726373
H    -3.751955  -2.856917  0.422246
H    -2.348772  -0.853320  -1.146889
H    -2.580420  -2.564561  -1.508571
H    -1.216007  -2.068790  -0.485495
