31
Energy: -16702.8086656 eV PBE+vdW (tier 2 basis)
C    0.413645  -0.625529  -0.066781
C    0.302620  -0.400833  1.430495
O    1.286118  -0.188042  2.132260
H    0.966217  0.211895  -0.509012
H    -0.553130  -0.726438  -0.576033
H    1.002588  -1.535233  -0.239678
N    -0.975924  -0.446669  1.930745
C    -1.275432  -0.373446  3.357862
C    -2.080880  -1.629063  3.753400
O    -1.575966  -2.562427  4.365542
H    -1.725217  -0.699360  1.296987
H    -0.309741  -0.474899  3.869187
C    -1.943333  0.961640  3.777553
C    -1.094980  2.194149  3.395755
C    -2.299248  0.935250  5.270011
C    0.230241  2.361763  4.143693
H    -2.885531  1.062646  3.203396
H    -1.723099  3.084644  3.559914
H    -0.898386  2.161180  2.313596
H    -1.413597  0.739226  5.888891
H    -3.035863  0.155246  5.504175
H    -2.721115  1.899266  5.584766
H    0.907844  1.518407  3.959891
H    0.083432  2.464071  5.227404
H    0.743032  3.269607  3.799129
N    -3.379406  -1.647469  3.308144
C    -4.280627  -2.743356  3.617537
H    -3.783342  -0.773888  2.988763
H    -3.677793  -3.644093  3.771821
H    -4.975553  -2.907169  2.784922
H    -4.859575  -2.558077  4.535669
