31
Energy: -16702.382939 eV PBE+vdW (tier 2 basis)
C    0.950069  0.403730  -0.126428
C    0.902891  0.163194  1.364161
O    1.916213  0.306149  2.048431
H    1.675476  -0.305714  -0.542989
H    1.344417  1.414004  -0.294494
H    0.007712  0.261746  -0.653232
N    -0.257280  -0.236148  2.002371
C    -1.657892  -0.419362  1.636475
C    -1.861864  -1.511985  0.562558
O    -0.972861  -1.882031  -0.197747
H    -0.060984  -0.356115  2.991639
H    -2.096353  -0.848750  2.552150
C    -2.476121  0.902238  1.429785
C    -2.196677  1.728582  0.162902
C    -2.325097  1.778294  2.680531
C    -2.632220  1.096167  -1.160496
H    -3.532280  0.591050  1.374246
H    -1.133966  2.006667  0.125379
H    -2.737762  2.680116  0.287886
H    -2.564232  1.222546  3.599088
H    -2.999845  2.642850  2.628491
H    -1.299221  2.158021  2.778852
H    -3.694373  0.810904  -1.131957
H    -2.056553  0.197520  -1.413729
H    -2.505131  1.807128  -1.987635
N    -3.101051  -2.097608  0.505942
C    -4.276465  -1.908300  1.335845
H    -3.160672  -2.785303  -0.238916
H    -4.000873  -1.686544  2.374556
H    -4.856632  -2.838757  1.345459
H    -4.931234  -1.100396  0.972721
