31
Energy: -16702.678166 eV PBE+vdW (tier 2 basis)
C    0.140997  0.105006  0.584215
C    -0.256089  0.167984  2.048546
O    0.585585  0.222617  2.943344
H    1.225576  0.230218  0.533157
H    -0.337294  0.889754  -0.017021
H    -0.126162  -0.861264  0.137671
N    -1.594552  0.177455  2.359202
C    -2.761693  0.056847  1.493246
C    -3.802025  1.162090  1.826880
O    -4.971171  0.895733  2.098208
H    -1.760398  0.191282  3.362608
H    -2.421710  0.249650  0.463491
C    -3.413596  -1.348124  1.521139
C    -3.703755  -1.833828  2.955507
C    -2.564702  -2.355916  0.739189
C    -4.707211  -2.986869  3.020340
H    -4.382236  -1.228941  1.011352
H    -4.106965  -0.996150  3.542316
H    -2.758550  -2.140398  3.433138
H    -2.405194  -2.032180  -0.299526
H    -3.053173  -3.337602  0.700185
H    -1.580657  -2.501365  1.208742
H    -4.894366  -3.284812  4.060540
H    -4.353921  -3.879464  2.485951
H    -5.670098  -2.690598  2.581130
N    -3.372892  2.461126  1.808728
C    -2.100899  3.018273  1.377284
H    -4.115506  3.111986  2.043574
H    -2.233609  4.094929  1.225037
H    -1.775480  2.591973  0.418293
H    -1.301118  2.867909  2.114828
