31
Energy: -16702.7928905 eV PBE+vdW (tier 2 basis)
C    -0.442373  -0.494405  0.160079
C    -0.704887  -0.570914  1.654063
O    -0.299580  -1.502423  2.343283
H    0.638463  -0.566163  -0.011197
H    -0.818809  0.421511  -0.312597
H    -0.908410  -1.362709  -0.322592
N    -1.417582  0.479368  2.177212
C    -1.894288  0.480026  3.562666
C    -3.097928  1.422702  3.708208
O    -4.121772  1.076557  4.287568
H    -1.864100  1.116431  1.527781
H    -2.285508  -0.521153  3.791400
C    -0.751685  0.754442  4.590055
C    -1.280386  0.600280  6.025413
C    -0.017302  2.080022  4.363983
C    -0.183318  0.546460  7.090341
H    -0.036173  -0.062335  4.405626
H    -1.881962  -0.320092  6.079555
H    -1.978255  1.422829  6.253593
H    0.240044  2.219022  3.303669
H    0.927650  2.101095  4.920840
H    -0.608518  2.944518  4.703321
H    -0.612498  0.358809  8.083469
H    0.381790  1.486514  7.153302
H    0.534265  -0.260085  6.881153
N    -2.959846  2.660953  3.129874
C    -3.990420  3.676788  3.266034
H    -2.025262  2.966491  2.881081
H    -3.938282  4.371758  2.419926
H    -3.893773  4.244437  4.204593
H    -4.966607  3.181306  3.271377
