31
Energy: -16702.6171489 eV PBE+vdW (tier 2 basis)
C    1.177373  1.030802  1.079474
C    0.486190  -0.249165  1.506374
O    1.074378  -1.328024  1.571460
H    2.205486  0.784446  0.803201
H    1.189506  1.769643  1.893593
H    0.674378  1.500686  0.222870
N    -0.843319  -0.160330  1.837712
C    -1.661439  1.036966  1.913360
C    -1.422352  1.994134  3.106980
O    -1.763882  3.170103  2.974014
H    -1.243910  -1.048679  2.120449
H    -1.403170  1.676626  1.056193
C    -3.181127  0.751175  1.766033
C    -3.854429  0.031033  2.958671
C    -3.488525  0.096884  0.414558
C    -3.631311  -1.477701  3.119939
H    -3.618785  1.760806  1.752295
H    -4.937206  0.199352  2.849786
H    -3.575975  0.548546  3.890125
H    -3.142826  0.731616  -0.412558
H    -4.570825  -0.049269  0.294844
H    -3.006090  -0.882452  0.296220
H    -3.883939  -2.033667  2.207305
H    -4.268940  -1.869946  3.923408
H    -2.599483  -1.740336  3.394003
N    -0.833809  1.573727  4.267015
C    -0.466495  0.248728  4.753965
H    -0.747322  2.341658  4.926070
H    -0.221002  0.345024  5.817461
H    0.408746  -0.167857  4.239863
H    -1.294049  -0.467109  4.674602
