31
Energy: -16702.3177681 eV PBE+vdW (tier 2 basis)
C    0.194114  1.157060  2.042359
C    -0.234456  -0.290209  2.163237
O    0.546504  -1.131906  2.610892
H    -0.218674  1.740905  2.876623
H    -0.120195  1.639314  1.111525
H    1.284938  1.178647  2.117126
N    -1.503794  -0.692874  1.810539
C    -2.695007  -0.129420  1.161196
C    -2.993412  -0.687799  -0.250316
O    -4.173868  -0.782254  -0.594690
H    -1.596155  -1.687158  2.009529
H    -3.534311  -0.545477  1.735761
C    -2.880024  1.420358  1.199224
C    -4.341303  1.786704  1.536678
C    -2.452938  2.133633  -0.090483
C    -4.765118  1.458406  2.968016
H    -2.261512  1.788094  2.030021
H    -5.007716  1.288927  0.816150
H    -4.458663  2.869034  1.369469
H    -1.437886  1.872238  -0.417018
H    -2.480298  3.221828  0.052959
H    -3.135526  1.890376  -0.916518
H    -4.705935  0.382529  3.187390
H    -5.804908  1.761841  3.146928
H    -4.134603  1.979201  3.703401
N    -1.996840  -1.074934  -1.100311
C    -0.545505  -0.979442  -1.012541
H    -2.381282  -1.424681  -1.972834
H    -0.138117  -1.200095  -2.005402
H    -0.113080  -1.692248  -0.298980
H    -0.212571  0.030672  -0.742664
