31
Energy: -16702.7604349 eV PBE+vdW (tier 2 basis)
C    -0.598087  -0.476571  -1.016327
C    -0.124671  -0.512125  0.428650
O    1.047052  -0.742779  0.718066
H    0.252398  -0.743215  -1.648956
H    -0.944894  0.527712  -1.300202
H    -1.420316  -1.180237  -1.201972
N    -1.057173  -0.282697  1.407672
C    -2.459842  0.077739  1.271944
C    -2.655713  1.374158  2.081474
O    -2.335517  1.411966  3.268761
H    -0.681219  -0.244132  2.353666
H    -2.666202  0.242879  0.207762
C    -3.422172  -1.023123  1.798725
C    -3.195542  -2.350359  1.057275
C    -4.879316  -0.553177  1.718116
C    -3.897566  -3.553101  1.691339
H    -3.164231  -1.169049  2.861796
H    -2.115339  -2.552273  1.021424
H    -3.527727  -2.239261  0.010029
H    -5.041412  0.380425  2.272541
H    -5.559765  -1.300712  2.143667
H    -5.186232  -0.390221  0.673017
H    -3.646571  -4.478205  1.155773
H    -4.991459  -3.455493  1.677356
H    -3.588376  -3.683250  2.738329
N    -3.175659  2.462783  1.445498
C    -3.585663  2.588217  0.055816
H    -3.256485  3.278811  2.044493
H    -3.944256  3.610438  -0.103943
H    -4.407383  1.904377  -0.198996
H    -2.751987  2.417770  -0.641017
