31
Energy: -16702.5233123 eV PBE+vdW (tier 2 basis)
C    -0.903890  -0.306818  0.015030
C    -0.582105  0.328047  1.360898
O    0.308871  1.157603  1.483945
H    0.026844  -0.431003  -0.547574
H    -1.547902  0.384089  -0.546840
H    -1.416596  -1.274788  0.090108
N    -1.367191  -0.141418  2.394815
C    -1.556840  0.443957  3.724847
C    -2.611604  1.571938  3.632651
O    -2.498572  2.494584  2.833077
H    -2.107230  -0.772984  2.110738
H    -1.954287  -0.373810  4.344154
C    -0.259500  0.949532  4.403755
C    0.835818  -0.136232  4.447512
C    -0.564115  1.512703  5.798411
C    0.465791  -1.450302  5.140784
H    0.123155  1.766596  3.779054
H    1.707000  0.307488  4.954959
H    1.164326  -0.341656  3.420183
H    0.360038  1.887749  6.257550
H    -0.980514  0.753959  6.477640
H    -1.269943  2.352921  5.756177
H    0.125442  -1.299511  6.175267
H    1.334911  -2.120299  5.182322
H    -0.326087  -1.990298  4.602044
N    -3.703939  1.489278  4.460253
C    -4.010456  0.522315  5.501958
H    -4.323504  2.288317  4.363652
H    -5.046184  0.680511  5.822643
H    -3.363057  0.623941  6.385586
H    -3.938426  -0.510293  5.134579
