31
Energy: -16702.645899 eV PBE+vdW (tier 2 basis)
C    -0.980245  2.574699  1.160179
C    -0.336833  1.287912  1.637342
O    0.765207  1.260350  2.183019
H    -0.268108  3.388779  1.315504
H    -1.902204  2.790865  1.718827
H    -1.252798  2.525845  0.096916
N    -1.046233  0.127841  1.440563
C    -2.396170  -0.016840  0.919735
C    -3.538211  0.516332  1.819543
O    -4.555522  0.950208  1.276290
H    -0.570237  -0.697405  1.793761
H    -2.492115  0.610785  0.022015
C    -2.635482  -1.480712  0.449885
C    -3.864711  -1.581273  -0.472915
C    -2.694274  -2.489056  1.604385
C    -3.985735  -2.919209  -1.205209
H    -1.747226  -1.714747  -0.164320
H    -3.808425  -0.769138  -1.213404
H    -4.778788  -1.383963  0.106176
H    -1.798619  -2.459157  2.241118
H    -2.764159  -3.513904  1.220599
H    -3.571430  -2.312491  2.243375
H    -4.820785  -2.893470  -1.917442
H    -4.173344  -3.757203  -0.520497
H    -3.073337  -3.151758  -1.774219
N    -3.435719  0.519793  3.183732
C    -2.383215  0.089951  4.096836
H    -4.263660  0.930657  3.604782
H    -2.802765  0.094339  5.109183
H    -1.509175  0.754845  4.085968
H    -2.048209  -0.932375  3.889551
