31
Energy: -16702.4730778 eV PBE+vdW (tier 2 basis)
C    -0.046674  -0.675224  -0.116473
C    0.087564  -0.428388  1.379379
O    1.193709  -0.359694  1.911726
H    0.430619  -1.634136  -0.353799
H    0.509823  0.105511  -0.649560
H    -1.079587  -0.692942  -0.485724
N    -1.104934  -0.288179  2.035032
C    -1.449625  -0.098058  3.455847
C    -1.874614  1.341357  3.840481
O    -2.808194  1.469293  4.634280
H    -1.921127  -0.360587  1.439535
H    -2.417487  -0.612021  3.544566
C    -0.578484  -0.798072  4.543773
C    0.736167  -0.126497  4.995313
C    -0.355846  -2.269133  4.167406
C    0.580216  1.065255  5.943797
H    -1.252218  -0.780872  5.417539
H    1.338027  0.138932  4.117790
H    1.314915  -0.903403  5.520236
H    0.009267  -2.827106  5.039807
H    0.392473  -2.370802  3.371146
H    -1.285855  -2.749256  3.830288
H    1.563491  1.397681  6.304072
H    -0.024043  0.801058  6.823592
H    0.098909  1.929773  5.471162
N    -1.276310  2.435664  3.287934
C    -0.055660  2.559997  2.507688
H    -1.709930  3.295397  3.611973
H    0.463276  3.478402  2.808980
H    -0.259124  2.617446  1.426973
H    0.623839  1.721139  2.685313
