31
Energy: -16702.5965159 eV PBE+vdW (tier 2 basis)
C    -0.094510  -0.196766  0.707913
C    -0.374186  0.737590  1.871342
O    0.535029  1.250624  2.521486
H    0.982125  -0.174017  0.520653
H    -0.623963  0.098068  -0.207773
H    -0.390791  -1.227013  0.942835
N    -1.683200  1.017768  2.179742
C    -2.917981  0.450881  1.648274
C    -3.923034  1.602865  1.377441
O    -5.003671  1.683789  1.957592
H    -1.768837  1.636474  2.982515
H    -2.673150  0.006495  0.670707
C    -3.559343  -0.662279  2.516805
C    -3.711516  -0.307607  4.018504
C    -2.857787  -2.006928  2.300476
C    -2.503316  -0.552960  4.931465
H    -4.583508  -0.750768  2.124085
H    -4.554712  -0.903034  4.401643
H    -4.046310  0.736082  4.099772
H    -2.875390  -2.299886  1.240806
H    -3.360005  -2.801176  2.870058
H    -1.809540  -1.988453  2.628775
H    -2.741415  -0.237088  5.956208
H    -1.604018  -0.005459  4.621900
H    -2.232854  -1.616500  4.979748
N    -3.552833  2.546740  0.458868
C    -2.372919  2.602514  -0.387093
H    -4.245206  3.281733  0.356226
H    -1.465695  2.873895  0.170433
H    -2.541616  3.356760  -1.163201
H    -2.195533  1.645141  -0.896824
