31
Energy: -16702.5828179 eV PBE+vdW (tier 2 basis)
C    -0.292775  -2.335801  -0.507168
C    0.319768  -1.318722  0.432457
O    1.535571  -1.275239  0.611163
H    -0.404079  -3.278918  0.044116
H    0.407894  -2.495708  -1.332643
H    -1.275363  -2.067101  -0.906048
N    -0.493428  -0.452637  1.129612
C    -1.931388  -0.218109  1.117043
C    -2.734229  -1.547644  1.160611
O    -2.362080  -2.478989  1.865671
H    0.047410  0.101444  1.786092
H    -2.153165  0.194088  2.116905
C    -2.369159  0.896110  0.117562
C    -2.087330  0.575637  -1.362695
C    -1.731169  2.229548  0.536571
C    -2.695064  1.574866  -2.350619
H    -3.460915  1.022355  0.247274
H    -2.467511  -0.427955  -1.606468
H    -0.997774  0.526223  -1.512813
H    -1.924213  2.446838  1.596695
H    -2.131316  3.068052  -0.045783
H    -0.642676  2.208488  0.386390
H    -2.528188  1.247705  -3.385186
H    -2.256887  2.576323  -2.252859
H    -3.781603  1.673743  -2.206832
N    -3.894816  -1.576559  0.443386
C    -4.792994  -2.715634  0.463608
H    -4.134761  -0.777716  -0.128833
H    -5.787919  -2.431006  0.833250
H    -4.361461  -3.463132  1.137231
H    -4.898515  -3.156025  -0.537827
