30
Energy: -573015.3037165  eV PBE+vdW (tier 2 basis)
C    -0.799632  0.179201  0.192972
C    -0.480911  0.358528  1.647388
O    0.512418  1.082655  1.938459
H    -1.682778  -0.447006  0.023515
H    0.070786  -0.258835  -0.312868
H    -0.965357  1.168905  -0.255036
N    -1.288500  -0.249055  2.548064
C    -1.293947  -0.061140  4.000830
C    -0.419349  -1.138118  4.681289
O    0.832581  -0.954053  4.852709
H    -1.983750  -0.880205  2.157413
H    -0.781545  0.891902  4.202586
C    -2.734848  0.165385  4.562973
C    -3.730283  -0.936303  4.435464
N    -4.609312  -1.083012  3.392523
C    -4.079784  -1.982135  5.328069
C    -5.415825  -2.166364  3.673564
N    -5.101453  -2.717517  4.836162
H    -3.113805  1.081870  4.088814
H    -2.617563  0.399362  5.631710
H    -4.741200  -0.441398  2.614176
H    -3.686679  -2.149257  6.329559
H    -6.199338  -2.502781  2.999420
N    -0.954206  -2.280685  5.063816
C    -0.206699  -3.388383  5.675076
H    -1.970120  -2.384521  4.952911
H    -0.881642  -4.243379  5.765546
H    0.156688  -3.099781  6.668945
H    0.649305  -3.656557  5.046044
Hg    1.795746  0.826676  3.827905
