30
Energy: -573015.5629162  eV PBE+vdW (tier 2 basis)
C    -0.991900  -1.615833  2.944656
C    -0.382917  -0.439900  2.278033
O    0.903911  -0.504869  2.080511
H    -0.818557  -2.520571  2.349217
H    -2.058266  -1.477882  3.147947
H    -0.471115  -1.756742  3.906033
N    -1.068057  0.682411  2.007068
C    -2.427392  0.784347  1.449764
C    -2.712190  -0.503124  0.634838
O    -1.780289  -1.019629  0.000948
H    -0.475445  1.481952  1.784849
H    -3.160967  0.944853  2.252547
C    -2.508269  2.043619  0.483914
C    -1.379126  2.060551  -0.494346
N    -1.291114  1.276466  -1.641684
C    -0.092324  2.485470  -0.267812
C    -0.013135  1.142047  -2.013464
N    0.787296  1.865792  -1.189522
H    -2.468864  2.957767  1.092252
H    -3.493311  2.029330  0.000316
H    -2.073358  0.826848  -2.115794
H    0.277276  3.212196  0.451700
H    0.328187  0.557418  -2.862494
N    -3.981446  -0.932389  0.646175
C    -4.463779  -2.083648  -0.118756
H    -4.651633  -0.454052  1.243007
H    -4.912908  -2.817364  0.561049
H    -3.617181  -2.539296  -0.638588
H    -5.220705  -1.765752  -0.846285
Hg    1.526580  0.515987  0.339923
