30
Energy: -573016.2564023  eV PBE+vdW (tier 2 basis)
C    -0.030883  2.554266  -0.508303
C    -0.718972  1.541628  0.356477
O    0.029378  0.686380  0.921030
H    0.595337  3.186169  0.139510
H    0.645815  2.040740  -1.201948
H    -0.720696  3.197294  -1.065535
N    -2.067128  1.643341  0.456639
C    -3.108056  1.120207  1.390559
C    -2.653957  1.128912  2.870318
O    -1.940587  0.216352  3.346233
H    -2.428383  2.395322  -0.124573
H    -3.895084  1.881707  1.308779
C    -3.877234  -0.168123  0.939517
C    -3.267485  -1.539968  0.824096
N    -3.425123  -2.297067  -0.273628
C    -2.580157  -2.434236  1.759081
C    -2.895906  -3.575984  -0.042141
N    -2.391099  -3.681524  1.146531
H    -4.337864  0.074216  -0.028247
H    -4.718435  -0.264862  1.648832
H    -3.864894  -1.998881  -1.145322
H    -2.744869  -2.400905  2.840666
H    -2.921448  -4.349135  -0.807104
N    -3.083833  2.155705  3.603137
C    -2.755785  2.342571  5.018940
H    -3.705379  2.838974  3.179200
H    -1.899803  1.712794  5.273582
H    -2.510854  3.395984  5.192158
H    -3.612606  2.063677  5.645584
Hg    -0.785011  -1.140554  1.732929
