30
Energy: -573016.1411541  eV PBE+vdW (tier 2 basis)
C    -1.721725  1.766129  0.304464
C    -1.254677  0.952988  1.472319
O    -0.081163  0.475572  1.399616
H    -1.067507  2.646260  0.215708
H    -2.759770  2.104503  0.391605
H    -1.593712  1.185009  -0.617413
N    -2.119218  0.808543  2.506338
C    -1.952277  0.399088  3.925797
C    -0.612963  0.884900  4.530151
O    0.387801  0.131948  4.566284
H    -3.017301  1.250080  2.325637
H    -2.739054  0.968531  4.438423
C    -2.334994  -1.073982  4.290607
C    -1.631040  -2.298247  3.769437
N    -2.286450  -3.288578  3.144873
C    -0.268927  -2.824917  3.906661
C    -1.410759  -4.363531  2.919214
N    -0.217455  -4.113539  3.356462
H    -3.402680  -1.180191  4.053635
H    -2.269900  -1.125303  5.391698
H    -3.271764  -3.275929  2.878191
H    0.366351  -2.594766  4.768006
H    -1.742917  -5.272772  2.422621
N    -0.570676  2.118895  5.033714
C    -1.643681  3.110474  5.151515
H    0.341764  2.371149  5.415744
H    -2.060648  3.370429  4.170573
H    -1.214983  4.019874  5.581695
H    -2.440107  2.766624  5.825186
Hg    0.528431  -1.244240  2.579237
