30
Energy: -573015.3443261  eV PBE+vdW (tier 2 basis)
C    -1.015992  -2.443013  1.825204
C    -1.018742  -0.968070  2.094975
O    -0.498183  -0.208448  1.235108
H    0.024600  -2.791913  1.777687
H    -1.456872  -2.622454  0.835177
H    -1.567333  -3.017865  2.577538
N    -1.600311  -0.539852  3.240185
C    -1.949766  0.840653  3.584579
C    -0.840684  1.465839  4.464536
O    0.272937  1.776135  3.948020
H    -1.945904  -1.270142  3.858113
H    -1.922842  1.424240  2.650751
C    -3.378357  0.921893  4.152306
C    -4.440170  0.606208  3.149794
N    -5.766326  0.525097  3.467196
C    -4.403822  0.378433  1.745495
C    -6.457785  0.260178  2.307065
N    -5.640030  0.169928  1.259363
H    -3.543627  1.948101  4.527090
H    -3.491073  0.254681  5.026526
H    -6.184376  0.643611  4.387469
H    -3.535128  0.372731  1.092622
H    -7.537938  0.140934  2.283837
N    -1.039135  1.649803  5.762138
C    -0.032515  2.212994  6.671001
H    -1.910646  1.330762  6.174794
H    -0.547762  2.646208  7.532839
H    0.536899  2.986703  6.146933
H    0.656363  1.429219  7.011683
Hg    0.630520  1.807404  1.641976
