30
Energy: -573015.4089589  eV PBE+vdW (tier 2 basis)
C    -0.214185  -1.469704  -0.696174
C    -1.014550  -0.877679  0.430320
O    -2.205553  -1.269955  0.559549
H    -0.813989  -1.436682  -1.613963
H    -0.029583  -2.529395  -0.469492
H    0.741523  -0.961149  -0.863660
N    -0.393688  0.042002  1.201285
C    -0.857153  0.866549  2.338256
C    -0.861877  0.038965  3.646903
O    -1.695220  -0.882435  3.869720
H    0.571443  0.217460  0.935090
H    -0.079878  1.634388  2.439997
C    -2.178189  1.634814  2.060723
C    -2.344332  2.868310  2.846753
N    -2.859074  4.035778  2.340882
C    -2.153574  3.149172  4.231948
C    -2.927161  4.938955  3.365706
N    -2.513412  4.407356  4.520804
H    -3.067837  0.963859  2.268341
H    -2.249692  1.835358  0.982952
H    -3.109828  4.222869  1.372301
H    -1.820140  2.462488  5.005190
H    -3.265817  5.962608  3.226293
N    0.077805  0.328296  4.541240
C    0.239999  -0.375804  5.818235
H    0.773325  1.030695  4.302021
H    0.872471  -1.263446  5.687178
H    -0.740728  -0.687923  6.189475
H    0.713160  0.303719  6.533224
Hg    -3.522269  -1.275467  2.451904
