30
Energy: -573015.2848753  eV PBE+vdW (tier 2 basis)
C    1.604524  1.435903  0.595617
C    0.889702  0.605819  1.614206
O    1.537557  -0.222185  2.322643
H    0.935312  2.013530  -0.051114
H    2.291895  2.121964  1.111064
H    2.226026  0.773529  -0.021995
N    -0.449600  0.751713  1.718046
C    -1.394787  -0.041447  2.493768
C    -1.405824  0.308064  3.992178
O    -0.427091  0.827362  4.587471
H    -0.864611  1.439181  1.093463
H    -2.380946  0.236370  2.094554
C    -1.217647  -1.591610  2.253474
C    -2.318262  -2.390597  2.842086
N    -2.152199  -3.446193  3.696401
C    -3.733800  -2.323085  2.653229
C    -3.393684  -3.966016  3.969176
N    -4.360998  -3.280141  3.357341
H    -0.240037  -1.924278  2.619250
H    -1.213543  -1.731086  1.160699
H    -1.267018  -3.840569  4.006553
H    -4.281261  -1.636791  2.009469
H    -3.539061  -4.838188  4.601956
N    -2.540026  0.029934  4.646996
C    -2.717133  0.157444  6.092133
H    -3.376376  -0.163435  4.096350
H    -1.754803  0.031061  6.594772
H    -3.431942  -0.600784  6.429521
H    -3.116868  1.152705  6.335365
Hg    1.805499  0.085830  4.609328
