30
Energy: -573015.4471694  eV PBE+vdW (tier 2 basis)
C    -0.986280  1.936808  -0.788605
C    -0.838539  0.875732  0.243174
O    0.301989  0.222740  0.224148
H    -1.877147  2.552651  -0.633983
H    -0.996810  1.493612  -1.794021
H    -0.094070  2.579917  -0.746667
N    -1.742535  0.596017  1.161510
C    -3.174219  0.851141  1.319781
C    -3.327818  0.741989  2.871205
O    -2.467709  0.066468  3.465332
H    -1.465782  0.105072  2.055128
H    -3.459918  1.842650  0.949165
C    -4.077397  -0.246264  0.605187
C    -3.376302  -1.561017  0.442833
N    -3.176838  -2.164557  -0.798439
C    -2.513908  -2.215980  1.287274
C    -2.186843  -3.068583  -0.723978
N    -1.727896  -3.130495  0.552229
H    -4.372308  0.124794  -0.385598
H    -5.005517  -0.346852  1.185049
H    -3.740205  -1.996478  -1.632554
H    -2.376041  -2.086366  2.356921
H    -1.839422  -3.682598  -1.549501
N    -4.376537  1.337029  3.432937
C    -4.677080  1.279860  4.867483
H    -4.985340  1.904874  2.849656
H    -5.642433  0.785642  5.028645
H    -4.717936  2.296466  5.274695
H    -3.886521  0.716282  5.368761
Hg    0.034367  -1.846557  0.626232
