30
Energy: -573015.3035090  eV PBE+vdW (tier 2 basis)
C    -0.811663  0.152655  0.041280
C    -0.449389  0.284849  1.490582
O    0.582996  0.957055  1.770649
H    -1.736354  -0.413461  -0.117697
H    0.017579  -0.330755  -0.492007
H    -0.923718  1.158602  -0.386417
N    -1.260494  -0.306930  2.398150
C    -1.223843  -0.153148  3.854479
C    -0.378928  -1.279928  4.490960
O    0.881913  -1.147751  4.643352
H    -1.993383  -0.896417  2.011223
H    -0.668812  0.773570  4.065984
C    -2.641551  0.116462  4.455509
C    -3.684337  -0.939036  4.316679
N    -4.586977  -1.019114  3.286522
C    -4.059978  -1.996105  5.184605
C    -5.431929  -2.076922  3.551389
N    -5.119474  -2.674874  4.691017
H    -2.991498  1.061660  4.016742
H    -2.492288  0.313035  5.527734
H    -4.708414  -0.348232  2.531501
H    -3.656162  -2.209300  6.172994
H    -6.240622  -2.360909  2.882897
N    -0.951329  -2.409889  4.856129
C    -0.238175  -3.560784  5.427068
H    -1.972710  -2.469958  4.765375
H    0.125903  -3.321860  6.433956
H    0.614604  -3.826456  4.792953
H    -0.936592  -4.400006  5.479774
Hg    1.893624  0.608946  3.624618
