30
Energy: -573015.6777619  eV PBE+vdW (tier 2 basis)
C    0.441272  -0.611845  1.033855
C    -0.204164  -0.576796  2.380356
O    -0.150964  -1.542713  3.200533
H    0.296902  0.307585  0.457403
H    0.026561  -1.459191  0.469349
H    1.520462  -0.798007  1.139606
N    -0.903905  0.522109  2.723775
C    -1.697571  0.673735  3.916208
C    -2.834233  1.681745  3.508400
O    -2.561084  2.439632  2.575554
H    -1.079728  1.274656  2.040666
H    -2.071028  -0.303546  4.241191
C    -0.908814  1.382842  5.114374
C    0.134587  0.481707  5.616927
N    1.417829  0.458267  5.194863
C    0.016767  -0.647548  6.499055
C    2.042039  -0.664393  5.747066
N    1.153779  -1.316266  6.579677
H    -1.637288  1.583292  5.910651
H    -0.515608  2.340968  4.751445
H    1.874512  1.171712  4.627941
H    -0.872330  -0.950080  7.048174
H    3.120780  -0.681838  5.913323
N    -3.985100  1.689177  4.186642
C    -4.445934  0.821573  5.267382
H    -4.643956  2.394682  3.853833
H    -4.444576  1.362796  6.223699
H    -3.820058  -0.071432  5.353620
H    -5.469187  0.491967  5.054857
Hg    1.883039  -2.371787  4.041578
