30
Energy: -573015.8026442  eV PBE+vdW (tier 2 basis)
C    -0.181262  1.468725  0.216097
C    -0.078582  0.745633  1.519354
O    1.012735  0.300485  1.981288
H    -1.198514  1.794129  -0.024533
H    0.181334  0.804353  -0.581280
H    0.480672  2.347359  0.222000
N    -1.212455  0.530674  2.219685
C    -1.317955  -0.258871  3.417903
C    -2.773922  -0.851312  3.381991
O    -3.628200  -0.162779  2.827212
H    -2.129366  0.781858  1.825446
H    -0.537211  -1.029342  3.430709
C    -1.242229  0.617702  4.757495
C    0.116462  1.146187  4.917487
N    0.551539  2.339440  4.454276
C    1.296656  0.492978  5.414930
C    1.938538  2.392500  4.612394
N    2.371609  1.241976  5.239635
H    -1.482694  -0.047994  5.595825
H    -2.009664  1.400194  4.700006
H    -0.036174  3.101364  4.118398
H    1.345651  -0.489087  5.880548
H    2.455633  3.347972  4.717712
N    -2.967276  -2.029584  3.981064
C    -4.269372  -2.704189  3.992174
H    -2.161306  -2.551380  4.313523
H    -4.358694  -3.391989  3.141007
H    -5.058883  -1.949288  3.926383
H    -4.363483  -3.269558  4.925089
Hg    2.848418  1.714844  2.468182
