30
Energy: -573016.2539332  eV PBE+vdW (tier 2 basis)
 C   -0.00136   -2.10453   -0.07477
 C   -0.38274   -1.26427    1.10655
 O   -1.17208   -1.80076    1.94284
 H    0.58669   -1.56598   -0.82572
 H   -0.90717   -2.51820   -0.53436
 H    0.58936   -2.95806    0.29069
 N    0.15699   -0.02215    1.16841
 C    0.34033    1.01052    2.23143
 C    0.73244    0.40711    3.60160
 O   -0.12116   -0.08417    4.37502
 H    0.73011    0.17515    0.35207
 H    1.22463    1.55443    1.87356
 C   -0.72443    2.15837    2.29152
 C   -2.16353    1.97846    2.69603
 N   -3.17439    2.47025    1.96146
 C   -2.83115    1.46748    3.89574
 C   -4.38348    2.30047    2.65306
 N   -4.20851    1.71092    3.79362
 H   -0.71345    2.63762    1.30273
 H   -0.30210    2.90720    2.98511
 H   -3.08644    2.90600    1.04246
 H   -2.36708    1.48828    4.88683
 H   -5.33062    2.63207    2.23289
 N    2.02794    0.45985    3.90994
 C    2.59089   -0.06445    5.15722
 H    2.67005    0.91862    3.26966
 H    2.76675    0.75351    5.86763
 H    3.54184   -0.56049    4.93653
 H    1.88885   -0.77892    5.59436
Hg   -2.24719   -0.60433    3.38190
