30
Energy: -573015.3250439  eV PBE+vdW (tier 2 basis)
C    -0.005533  0.595265  0.202087
C    -0.027182  0.072590  1.610568
O    1.055048  -0.361413  2.082735
H    0.629879  1.491537  0.172613
H    0.466842  -0.151513  -0.448809
H    -0.999932  0.844719  -0.185473
N    -1.216031  0.108617  2.257017
C    -1.608713  -0.337692  3.606200
C    -0.992465  0.555035  4.714360
O    0.136619  0.336479  5.240503
H    -1.967997  0.528174  1.718133
H    -2.691912  -0.159611  3.641469
C    -1.427448  -1.848558  3.906220
C    -2.123170  -2.799708  3.018433
N    -2.692408  -3.962467  3.475358
C    -2.289629  -2.872693  1.602851
C    -3.183408  -4.640635  2.393290
N    -2.940961  -3.989800  1.250565
H    -1.721210  -2.013188  4.953118
H    -0.325338  -2.116488  3.890956
H    -2.776580  -4.260983  4.444746
H    -1.944049  -2.163587  0.857739
H    -3.714950  -5.584726  2.483244
N    -1.722546  1.590315  5.114031
C    -1.282499  2.568476  6.113659
H    -2.672739  1.678758  4.762031
H    -1.783449  3.520050  5.912476
H    -0.197421  2.691811  6.048534
H    -1.544019  2.226488  7.123729
Hg    1.674201  -1.066246  4.209614
