30
Energy: -573015.3368268  eV PBE+vdW (tier 2 basis)
C    -1.357705  -2.098375  -0.741076
C    -0.804499  -1.393713  0.459534
O    0.428254  -1.519542  0.712254
H    -1.258028  -3.182975  -0.596328
H    -0.744869  -1.837139  -1.614695
H    -2.403857  -1.843357  -0.943697
N    -1.653024  -0.646247  1.200084
C    -1.303061  0.340498  2.222713
C    -1.436528  -0.278029  3.630119
O    -0.799956  -1.337710  3.921999
H    -2.631064  -0.684759  0.920634
H    -0.227021  0.552016  2.104308
C    -2.093685  1.653035  1.906359
C    -1.906174  2.781286  2.858850
N    -0.774745  3.538735  2.996862
C    -2.830338  3.369718  3.764662
C    -1.037693  4.509910  3.938095
N    -2.276221  4.414351  4.409810
H    -3.170471  1.428886  1.862575
H    -1.800445  1.956231  0.890007
H    0.084365  3.462487  2.458078
H    -3.878994  3.104363  3.896271
H    -0.299117  5.249717  4.236295
N    -2.223896  0.275752  4.540272
C    -2.367709  -0.203364  5.917390
H    -2.779725  1.087230  4.266077
H    -3.132781  -0.990162  5.966123
H    -2.676361  0.638419  6.544520
H    -1.415468  -0.612623  6.267438
Hg    1.179815  -1.887638  2.865470
