30
Energy: -573015.5618629  eV PBE+vdW (tier 2 basis)
C    -0.783748  -1.217097  3.260080
C    -0.266190  -0.029491  2.539245
O    1.029881  0.043652  2.424458
H    -0.468390  -2.136279  2.751207
H    -1.870292  -1.190648  3.387454
H    -0.318149  -1.225173  4.259456
N    -1.054312  0.983671  2.141763
C    -2.365786  0.877261  1.480685
C    -2.417296  -0.481615  0.735536
O    -1.373065  -0.917041  0.227546
H    -0.541275  1.829916  1.895846
H    -3.177658  0.985700  2.213852
C    -2.525090  2.057164  0.429004
C    -1.342260  2.144945  -0.479887
N    -1.094156  1.309157  -1.565867
C    -0.126070  2.721269  -0.204393
C    0.213466  1.292843  -1.848517
N    0.875091  2.146681  -1.026839
H    -2.630773  3.004887  0.974960
H    -3.467508  1.897764  -0.110283
H    -1.791838  0.754945  -2.060824
H    0.115394  3.526587  0.485216
H    0.671282  0.698971  -2.633928
N    -3.623152  -1.059725  0.656891
C    -3.890633  -2.301507  -0.070617
H    -4.399570  -0.636573  1.159266
H    -4.627142  -2.123920  -0.863761
H    -4.287555  -3.057298  0.617622
H    -2.954987  -2.662102  -0.505499
Hg    1.643776  0.992055  0.641330
