30
Energy: -573015.3441337  eV PBE+vdW (tier 2 basis)
C    -0.811546  -2.371011  1.954871
C    -0.883642  -0.903750  2.255993
O    -0.351241  -0.105687  1.439530
H    0.243022  -2.677862  1.938635
H    -1.208957  -2.544657  0.945495
H    -1.366816  -2.984102  2.673426
N    -1.536981  -0.524636  3.379727
C    -1.956591  0.832933  3.736206
C    -0.915034  1.481018  4.680044
O    0.205197  1.852236  4.221312
H    -1.884597  -1.281850  3.963157
H    -1.910242  1.438638  2.817337
C    -3.411909  0.845405  4.237618
C    -4.412206  0.516947  3.177641
N    -5.748825  0.385299  3.426781
C    -4.299129  0.321205  1.772659
C    -6.372949  0.123002  2.228535
N    -5.502106  0.082749  1.221291
H    -3.634175  1.854235  4.629625
H    -3.539240  0.151436  5.088783
H    -6.214940  0.469301  4.327564
H    -3.399758  0.358441  1.163866
H    -7.445913  -0.031507  2.148965
N    -1.177417  1.621355  5.971696
C    -0.236707  2.201709  6.938449
H    -2.051052  1.254167  6.337090
H    0.331378  3.002487  6.455285
H    0.460542  1.435222  7.300874
H    -0.808064  2.602932  7.780254
Hg    0.662896  1.951349  1.935293
