30
Energy: -573015.3855690  eV PBE+vdW (tier 2 basis)
C    -1.228502  -2.332980  -0.455891
C    -0.743427  -1.587747  0.753459
O    0.404428  -1.869616  1.189896
H    -2.191514  -1.965415  -0.827377
H    -1.308982  -3.399295  -0.204626
H    -0.474407  -2.246140  -1.249342
N    -1.566904  -0.656655  1.287054
C    -1.230130  0.318227  2.328913
C    -1.545101  -0.262584  3.731460
O    -0.650844  -0.862498  4.395510
H    -2.479718  -0.574328  0.845889
H    -0.139447  0.456528  2.307077
C    -1.877155  1.675801  1.996378
C    -1.438391  2.805748  2.864160
N    -1.596375  4.117522  2.510779
C    -0.840215  2.862988  4.153498
C    -1.107219  4.888299  3.537726
N    -0.654345  4.137227  4.540490
H    -2.982393  1.599138  2.001950
H    -1.621724  1.905661  0.948289
H    -1.984259  4.473222  1.639572
H    -0.569980  2.034028  4.802080
H    -1.097070  5.974567  3.501819
N    -2.768944  -0.134321  4.226072
C    -3.199455  -0.687840  5.515457
H    -3.440016  0.434650  3.716774
H    -4.276451  -0.874500  5.470882
H    -2.986828  0.020527  6.326851
H    -2.663508  -1.622112  5.706628
Hg    1.288876  -1.631098  3.330570
