30
Energy: -573015.2842033  eV PBE+vdW (tier 2 basis)
C    1.873494  0.829927  0.581185
C    1.084483  0.071686  1.600939
O    1.645291  -0.831270  2.291853
H    2.408377  0.110315  -0.053295
H    1.264391  1.487128  -0.048772
H    2.640493  1.428057  1.093765
N    -0.229096  0.363092  1.724870
C    -1.245503  -0.329474  2.506563
C    -1.196540  0.000589  4.008706
O    -0.158557  0.402985  4.593856
H    -0.573828  1.099084  1.112999
H    -2.200196  0.060899  2.125524
C    -1.245152  -1.886882  2.247461
C    -2.421545  -2.564797  2.841128
N    -2.365637  -3.641387  3.683555
C    -3.822580  -2.338260  2.668423
C    -3.654466  -4.022895  3.964686
N    -4.545439  -3.227171  3.370025
H    -0.306684  -2.330779  2.597314
H    -1.269234  -2.012671  1.153301
H    -1.526949  -4.135263  3.980061
H    -4.296489  -1.588217  2.037580
H    -3.889915  -4.880247  4.590586
N    -2.344790  -0.160670  4.678247
C    -2.485636  -0.032794  6.127377
H    -3.205168  -0.254724  4.138831
H    -3.277127  -0.709361  6.467180
H    -2.766080  0.998152  6.388201
H    -1.536941  -0.274242  6.613633
Hg    1.981026  -0.576810  4.576217
