30
Energy: -573015.5635856  eV PBE+vdW (tier 2 basis)
C    -1.109982  -1.250717  3.177476
C    -0.498553  -0.116561  2.443793
O    0.802962  -0.123799  2.372944
H    -2.196874  -1.157585  3.263851
H    -0.681052  -1.256056  4.193147
H    -0.832148  -2.201283  2.705686
N    -1.210031  0.928697  1.990970
C    -2.508254  0.886874  1.297342
C    -2.636526  -0.491516  0.599191
O    -1.615614  -1.010589  0.124083
H    -0.639568  1.735710  1.739826
H    -3.328697  1.078151  2.003504
C    -2.558353  2.035713  0.200915
C    -1.341659  2.022025  -0.666165
N    -1.104150  1.134125  -1.712301
C    -0.105159  2.541157  -0.367655
C    0.209078  1.037197  -1.948201
N    0.889421  1.884275  -1.133946
H    -2.625051  3.007034  0.710327
H    -3.489555  1.913476  -0.366846
H    -1.813593  0.596851  -2.209204
H    0.156681  3.356384  0.302611
H    0.659441  0.391511  -2.696168
N    -3.876088  -0.994501  0.523789
C    -4.213515  -2.244450  -0.159179
H    -4.630473  -0.501886  0.995396
H    -4.904955  -2.049300  -0.988146
H    -4.693017  -2.933593  0.546089
H    -3.294031  -2.695535  -0.540718
Hg    1.537317  0.743191  0.593589
