30
Energy: -573015.3368517  eV PBE+vdW (tier 2 basis)
C    -1.483724  -2.040712  -0.642170
C    -0.866441  -1.334078  0.525692
O    0.375564  -1.472175  0.720300
H    -2.535906  -1.776633  -0.795949
H    -1.387586  -3.125206  -0.494666
H    -0.911209  -1.791228  -1.546010
N    -1.670853  -0.572342  1.300031
C    -1.263804  0.415184  2.300300
C    -1.339476  -0.196148  3.715156
O    -0.700384  -1.260718  3.982688
H    -2.661403  -0.602832  1.067344
H    -0.192229  0.615026  2.131770
C    -2.055093  1.734298  2.013811
C    -1.817155  2.864444  2.952721
N    -0.675312  3.613842  3.037552
C    -2.696916  3.464635  3.894499
C    -0.889748  4.591632  3.984167
N    -2.107452  4.508215  4.509323
H    -3.134732  1.519814  2.017198
H    -1.803204  2.031307  0.984613
H    0.159421  3.528116  2.463064
H    -3.741026  3.208802  4.072752
H    -0.133141  5.326713  4.246792
N    -2.080594  0.368990  4.656533
C    -2.169405  -0.102436  6.040733
H    -2.640207  1.184782  4.403452
H    -2.945506  -0.874992  6.127901
H    -2.434107  0.747025  6.677559
H    -1.209692  -0.527438  6.348812
Hg    1.223322  -1.834889  2.838030
