30
Energy: -573015.6781442  eV PBE+vdW (tier 2 basis)
C    0.548630  -0.660770  1.148005
C    -0.168531  -0.579475  2.455637
O    -0.172744  -1.522127  3.303977
H    0.455895  0.246582  0.542553
H    0.146754  -1.513274  0.581866
H    1.615937  -0.866829  1.317404
N    -0.871904  0.536597  2.729162
C    -1.726043  0.730237  3.872515
C    -2.827604  1.737996  3.376878
O    -2.495378  2.468052  2.440936
H    -0.999787  1.271593  2.017113
H    -2.127581  -0.233804  4.203489
C    -0.993517  1.464630  5.090818
C    0.010317  0.566783  5.673521
N    1.313985  0.517384  5.321692
C    -0.168325  -0.535734  6.578681
C    1.893825  -0.595360  5.937578
N    0.954639  -1.214093  6.738644
H    -1.760684  1.696023  5.840939
H    -0.569432  2.407578  4.722892
H    1.809302  1.209983  4.761316
H    -1.089044  -0.813524  7.087224
H    2.962107  -0.620822  6.160308
N    -4.013609  1.776124  3.990549
C    -4.548986  0.939668  5.060965
H    -4.645413  2.477395  3.600823
H    -5.538466  0.566623  4.772351
H    -4.650896  1.522482  5.986753
H    -3.906669  0.074275  5.247632
Hg    1.803223  -2.352198  4.274776
