30
Energy: -573015.3248350  eV PBE+vdW (tier 2 basis)
C    -0.473143  -0.515032  -0.330010
C    -0.376008  -0.465848  1.166165
O    0.671101  -0.910100  1.704655
H    0.321524  0.116678  -0.752791
H    -1.443140  -0.170723  -0.706959
H    -0.282418  -1.540173  -0.670640
N    -1.414152  0.078308  1.844854
C    -1.424041  0.481791  3.251666
C    -2.046475  -0.640994  4.120426
O    -1.349206  -1.645569  4.444264
H    -2.228362  0.323285  1.286829
H    -0.374265  0.545307  3.574884
C    -2.062527  1.887600  3.428943
C    -1.210725  2.978578  2.872215
N    -0.558192  3.909333  3.629748
C    -0.887679  3.332893  1.531745
C    0.108956  4.753911  2.770791
N    -0.087321  4.411983  1.498383
H    -2.238903  2.060080  4.499593
H    -3.048410  1.921190  2.934201
H    -0.583270  3.999371  4.643063
H    -1.247137  2.862689  0.620427
H    0.714158  5.586524  3.120161
N    -3.313494  -0.564969  4.498746
C    -3.990856  -1.604904  5.286439
H    -3.869306  0.230517  4.199755
H    -4.896829  -1.173835  5.720380
H    -3.325535  -1.952035  6.083797
H    -4.258850  -2.454958  4.646317
Hg    0.898503  -1.892892  3.822953
