27
Energy: -606651.314437 eV PBE+vdW (tier 2 basis)
N    -0.522306  0.941405  0.787916
C    -0.046223  -0.120461  1.668379
C    1.419626  -0.404152  1.380730
O    2.096314  0.332076  0.642191
H    -0.048037  1.822430  0.994307
H    -1.513128  1.112439  0.971727
H    -0.032128  0.172486  2.742822
C    -0.959153  -1.379276  1.600950
C    -1.461543  -1.876269  0.234300
C    -0.432118  -2.311474  -0.815693
N    0.120131  -1.153909  -1.537319
C    1.392191  -0.926362  -1.815437
N    2.440761  -1.716367  -1.665264
N    1.788217  0.394464  -2.202764
H    -1.846450  -1.143431  2.205365
H    -0.485328  -2.215739  2.140946
H    -2.142808  -1.139490  -0.217261
H    -2.093651  -2.752006  0.438288
H    -0.907250  -2.980689  -1.546322
H    0.401336  -2.867055  -0.361959
H    -0.542254  -0.406280  -1.738353
H    2.278884  -2.706826  -1.481877
H    2.004240  0.466692  -3.201665
H    1.138676  1.132463  -1.917382
O    2.029429  -1.437236  1.941509
H    1.441746  -1.940179  2.541483
Pb    3.919458  -0.128654  -0.833158
