27
Energy: -606650.436483 eV PBE+vdW (tier 2 basis)
N    -1.181599  -0.060510  0.945947
C    -0.109764  -0.207448  1.987859
C    1.219206  -0.521154  1.313911
O    1.331333  -0.464213  0.038269
H    -0.784078  0.203887  0.035180
H    -1.771861  -1.022597  0.851898
H    0.045168  0.778491  2.457468
C    -0.495559  -1.208721  3.092487
C    -0.809655  -2.651003  2.641962
C    -2.270982  -2.951003  2.285439
N    -2.756198  -2.231453  1.076525
C    -3.955692  -1.424569  1.180401
N    -4.265574  -0.685262  2.179904
N    -4.646800  -1.338742  0.002325
H    -1.341116  -0.781677  3.652187
H    0.344376  -1.215192  3.799449
H    -0.547914  -3.321655  3.472137
H    -0.152266  -2.955228  1.809521
H    -2.925071  -2.693641  3.128954
H    -2.390008  -4.029487  2.121789
H    -2.783624  -2.851487  0.265451
H    -3.673318  -0.810332  3.002520
H    -5.496705  -0.782577  0.051471
H    -4.699371  -2.137719  -0.620824
O    2.236454  -0.782871  2.042872
H    -1.868979  0.651819  1.223748
Pb    3.657443  -0.836969  0.222062
