27
Energy: -606649.490792 eV PBE+vdW (tier 2 basis)
N    0.799693  -0.953160  0.354378
C    0.311895  -0.308380  1.607176
C    1.530238  0.102703  2.429393
O    2.590871  -0.549343  2.389957
H    0.058446  -1.545323  -0.035108
H    1.001398  -0.246318  -0.362238
H    -0.290770  0.580441  1.361268
C    -0.535955  -1.333590  2.410625
C    -1.194844  -0.863668  3.714517
C    -2.360688  0.140312  3.535398
N    -3.143993  0.329436  4.735110
C    -4.101829  -0.566294  5.168458
N    -4.486391  -1.652638  4.543693
N    -4.678950  -0.309309  6.371074
H    0.109097  -2.202725  2.628342
H    -1.320105  -1.690783  1.722591
H    -0.453961  -0.467941  4.425998
H    -1.602207  -1.763583  4.197936
H    -3.023055  -0.199382  2.722472
H    -2.003047  1.134936  3.227900
H    -2.874164  1.082976  5.358057
H    -4.073230  -1.752482  3.613733
H    -5.429894  -0.930828  6.652349
H    -4.589678  0.574870  6.856025
O    1.474078  1.118127  3.254571
H    0.635998  1.617345  3.197884
Pb    2.936145  -2.238186  0.842584
