27
Energy: -606652.2147 eV PBE+vdW (tier 2 basis)
N    -0.433294  -0.008797  0.004039
C    -0.461045  0.086116  1.527108
C    0.893794  -0.465756  1.999072
O    1.309257  -1.527043  1.424566
H    0.160891  0.718076  -0.420075
H    -0.035917  -0.929933  -0.253986
H    -0.553715  1.147113  1.789124
C    -1.660666  -0.741780  2.032997
C    -2.051769  -0.602118  3.515725
C    -1.117885  -1.209468  4.576353
N    -0.807061  -2.621046  4.333170
C    0.431409  -3.138927  4.195719
N    1.548390  -2.501900  4.573769
N    0.568196  -4.348569  3.603636
H    -1.486170  -1.799507  1.779989
H    -2.540015  -0.419188  1.452455
H    -3.046745  -1.060499  3.614618
H    -2.194019  0.457499  3.774820
H    -1.593157  -1.103614  5.561306
H    -0.174283  -0.656396  4.617207
H    -1.591074  -3.269400  4.316987
H    1.363502  -1.795141  5.288306
H    1.347308  -4.931659  3.890438
H    -0.230917  -4.833123  3.209926
O    1.503643  0.104679  2.942124
H    -1.376238  0.078114  -0.401504
Pb    3.115808  -1.731766  3.067060
