27
Energy: -606650.501165 eV PBE+vdW (tier 2 basis)
N    -1.297872  1.288647  2.144414
C    -0.313163  0.624802  2.984630
C    1.033848  1.317814  2.754908
O    2.092135  0.766217  2.440758
H    -2.223574  0.869766  2.218983
H    -1.364164  2.292569  2.304445
H    -0.515200  0.750368  4.072985
C    -0.278151  -0.876169  2.664353
C    0.529047  -1.743194  3.660955
C    1.553782  -2.662479  2.996861
N    2.586250  -1.839282  2.329369
C    3.697944  -2.246806  1.781669
N    4.642178  -1.502453  1.206333
N    4.065723  -3.655487  1.720949
H    0.079603  -0.998924  1.630599
H    -1.318721  -1.225617  2.650820
H    -0.147524  -2.384417  4.239613
H    1.048031  -1.121004  4.405697
H    1.066559  -3.307747  2.248457
H    2.029683  -3.308535  3.749343
H    2.377227  -0.789119  2.327817
H    4.509875  -0.488459  1.195439
H    3.347486  -4.225712  1.259574
H    4.204061  -4.056615  2.656087
O    0.949448  2.626304  2.945620
H    1.818708  3.048005  2.784747
Pb    6.163508  -2.973206  0.436955
