27
Energy: -606652.198871 eV PBE+vdW (tier 2 basis)
N    1.100961  -1.223103  -0.379454
C    0.795655  -0.710824  0.989795
C    1.836440  -1.218165  1.978643
O    2.702226  -2.070948  1.712151
H    0.335864  -1.819895  -0.702102
H    1.136228  -0.434865  -1.031904
H    0.928464  0.381624  0.966913
C    -0.661321  -0.966529  1.482880
C    -1.042044  -2.313793  2.125894
C    -1.097890  -3.562701  1.241083
N    0.249862  -3.942221  0.804471
C    0.605761  -4.606997  -0.318069
N    1.884710  -4.496727  -0.713467
N    -0.323935  -5.280110  -1.013045
H    -1.325907  -0.739135  0.634668
H    -0.869166  -0.186417  2.227439
H    -2.048665  -2.180757  2.546754
H    -0.405209  -2.518591  3.002658
H    -1.713502  -3.380263  0.347505
H    -1.570283  -4.380355  1.807310
H    0.995355  -3.848054  1.487307
H    2.184580  -5.230795  -1.357926
H    -0.111226  -5.664968  -1.927039
H    -1.182451  -5.599308  -0.575578
O    1.724064  -0.669475  3.163929
H    2.420078  -0.994748  3.776408
Pb    3.217607  -2.630954  -0.574346
