27
Energy: -606652.0697 eV PBE+vdW (tier 2 basis)
N    0.634452  0.133389  0.334983
C    0.176912  -0.299564  1.719137
C    1.436737  -0.920167  2.365284
O    1.329190  -1.117304  3.629818
H    0.782245  1.148140  0.271359
H    -0.009089  -0.140105  -0.416969
H    -0.105463  0.602578  2.274843
C    -1.040420  -1.242154  1.669216
C    -0.942795  -2.603399  0.940017
C    -0.509940  -3.839505  1.753810
N    0.945222  -3.998891  1.866011
C    1.664580  -4.028496  2.988519
N    1.271265  -4.108136  4.239477
N    3.066061  -3.777156  2.890441
H    -1.862721  -0.668662  1.215294
H    -1.350191  -1.394446  2.712693
H    -0.335140  -2.544685  0.021080
H    -1.955573  -2.833469  0.581517
H    -0.912655  -4.742914  1.276457
H    -0.934713  -3.799178  2.764362
H    1.456498  -4.093138  0.991436
H    0.300432  -4.361977  4.422373
H    3.647105  -4.588403  3.114611
H    3.370884  -3.293222  2.042630
O    2.394609  -1.194947  1.622798
H    1.566533  -0.350005  0.229764
Pb    2.654446  -2.368934  5.030222
