27
Energy: -606649.952558 eV PBE+vdW (tier 2 basis)
N    0.081320  -0.037232  -0.177022
C    -0.122611  -0.066457  1.335839
C    1.266142  0.082552  1.967413
O    1.379925  0.012710  3.227065
H    0.016084  -0.982385  -0.580858
H    -0.600796  0.559515  -0.660976
H    -0.686386  0.843903  1.590922
C    -0.875901  -1.323968  1.788017
C    -2.341011  -1.418340  1.330451
C    -3.288230  -0.467062  2.074923
N    -4.647003  -0.620960  1.595458
C    -5.609991  0.366065  1.759442
N    -5.449145  1.547885  2.291543
N    -6.853631  0.051605  1.304737
H    -0.821816  -1.341716  2.886093
H    -0.314154  -2.209560  1.448549
H    -2.660596  -2.456669  1.502876
H    -2.445030  -1.260220  0.243614
H    -2.996802  0.581204  1.900727
H    -3.206343  -0.643556  3.163435
H    -4.993163  -1.576000  1.549171
H    -4.514003  1.695456  2.676506
H    -7.572823  0.756562  1.422539
H    -7.036293  -0.721657  0.678039
O    2.267557  0.300601  1.203417
H    1.044237  0.317198  -0.351933
Pb    3.704866  0.433953  3.159454
