27
Energy: -606650.023113 eV PBE+vdW (tier 2 basis)
N    1.113757  0.714927  1.320950
C    0.737727  0.690893  2.801314
C    1.995193  0.261297  3.565140
O    1.926465  0.031477  4.810110
H    0.894520  -0.185782  0.870774
H    0.609223  1.449881  0.807512
H    0.540963  1.738235  3.081930
C    -0.523642  -0.160837  3.013437
C    -1.233859  0.083335  4.353542
C    -2.572011  -0.680919  4.473724
N    -3.576330  -0.279420  3.500930
C    -3.717627  -0.767709  2.216019
N    -4.217899  -0.105452  1.216512
N    -3.203796  -2.028644  1.973540
H    -0.274846  -1.227157  2.894300
H    -1.219382  0.092105  2.196963
H    -1.427542  1.160759  4.477418
H    -0.593358  -0.220475  5.192357
H    -2.982352  -0.502828  5.476428
H    -2.397080  -1.761425  4.401553
H    -4.056567  0.597471  3.677779
H    -4.586586  0.814932  1.473563
H    -3.462179  -2.360384  1.046711
H    -3.350185  -2.730841  2.693843
O    3.101135  0.185035  2.926018
H    2.136424  0.862721  1.234802
Pb    4.256184  -0.346767  4.974892
