27
Energy: -606652.336558 eV PBE+vdW (tier 2 basis)
N    1.335199  -0.806175  1.306232
C    0.241392  -0.655347  2.321550
C    0.481208  -1.603660  3.528644
O    1.746498  -1.934495  3.786671
H    1.066450  -1.519188  0.616558
H    1.445196  0.060188  0.770058
H    0.348813  0.361871  2.734360
C    -1.153956  -0.803622  1.688276
C    -2.325187  -0.353694  2.598522
C    -3.319267  -1.497074  2.866723
N    -4.306029  -1.185549  3.899616
C    -4.182451  -1.480872  5.204143
N    -3.027619  -1.937738  5.697033
N    -5.237140  -1.313981  6.017431
H    -1.289186  -1.854231  1.383440
H    -1.166556  -0.211752  0.762931
H    -2.854418  0.485688  2.128864
H    -1.945129  0.022793  3.557068
H    -2.787089  -2.409304  3.165942
H    -3.875829  -1.745371  1.953276
H    -5.144187  -0.688281  3.617494
H    -2.992383  -2.335922  6.627506
H    -5.139481  -1.367570  7.023809
H    -6.172300  -1.180414  5.652879
O    -0.436153  -1.977954  4.231786
H    -2.162505  -1.941598  5.155950
Pb    3.395460  -1.565661  2.473926
