27
Energy: -606650.181685 eV PBE+vdW (tier 2 basis)
N    0.137061  1.142369  0.502842
C    -0.077590  0.385503  1.705702
C    1.245736  -0.195838  2.300818
O    1.359767  -1.322928  2.732763
H    0.416240  0.609983  -0.319011
H    0.683742  1.994098  0.605176
H    -0.440191  1.089254  2.476242
C    -1.123304  -0.719133  1.474836
C    -1.699260  -1.318040  2.765809
C    -2.671225  -2.456633  2.459637
N    -3.159256  -3.068251  3.715780
C    -4.053314  -4.040498  3.792799
N    -4.689995  -4.648084  2.815805
N    -4.447699  -4.567227  5.087644
H    -0.669779  -1.516998  0.866243
H    -1.929500  -0.270404  0.877516
H    -2.222067  -0.535704  3.338722
H    -0.877218  -1.706944  3.384425
H    -2.172043  -3.239749  1.866957
H    -3.542458  -2.092621  1.892331
H    -2.745377  -2.726114  4.581560
H    -4.490347  -4.368398  1.854307
H    -4.857750  -3.850553  5.696467
H    -3.663146  -4.993207  5.593414
O    2.221078  0.721803  2.282205
H    3.029812  0.333185  2.675169
Pb    -6.061673  -6.176732  3.874445
