27
Energy: -606650.174936 eV PBE+vdW (tier 2 basis)
N    -0.437672  0.841383  0.199684
C    -0.208355  0.196589  1.461563
C    0.857521  0.879597  2.381040
O    1.368594  0.315144  3.320338
H    -0.910271  1.741043  0.250917
H    0.375731  0.901757  -0.411028
H    -1.137517  0.275396  2.053061
C    0.154817  -1.289294  1.296503
C    -1.006363  -2.122501  0.741447
C    -0.611744  -3.591544  0.598242
N    -1.739801  -4.389756  0.068772
C    -1.763432  -5.710856  -0.012870
N    -0.828562  -6.569495  0.329695
N    -2.941031  -6.388992  -0.524495
H    0.469082  -1.665202  2.279976
H    1.032180  -1.370501  0.634033
H    -1.315479  -1.721076  -0.236319
H    -1.871557  -2.044079  1.419209
H    -0.327185  -4.011921  1.575766
H    0.243820  -3.702349  -0.086946
H    -2.547511  -3.872535  -0.274554
H    0.057615  -6.210041  0.687635
H    -3.792131  -6.154999  -0.002017
H    -3.114679  -6.178230  -1.513600
O    1.089512  2.148864  2.019069
H    1.724447  2.541731  2.654171
Pb    -1.772349  -8.645383  -0.048936
