 Entering Gaussian System, Link 0=g09
 Initial command:
 /shared/apps/gaussian/G09_LINUX_LINDA/g09/l1.exe /home/harms.n/Code/ga_conformer/ipython_notebooks/Gau-14784.inp -scrdir=/home/harms.n/Code/ga_conformer/ipython_notebooks/
 Entering Link 1 = /shared/apps/gaussian/G09_LINUX_LINDA/g09/l1.exe PID=     14785.
  
 Copyright (c) 1988,1990,1992,1993,1995,1998,2003,2009,2010,
            Gaussian, Inc.  All Rights Reserved.
  
 This is part of the Gaussian(R) 09 program.  It is based on
 the Gaussian(R) 03 system (copyright 2003, Gaussian, Inc.),
 the Gaussian(R) 98 system (copyright 1998, Gaussian, Inc.),
 the Gaussian(R) 94 system (copyright 1995, Gaussian, Inc.),
 the Gaussian 92(TM) system (copyright 1992, Gaussian, Inc.),
 the Gaussian 90(TM) system (copyright 1990, Gaussian, Inc.),
 the Gaussian 88(TM) system (copyright 1988, Gaussian, Inc.),
 the Gaussian 86(TM) system (copyright 1986, Carnegie Mellon
 University), and the Gaussian 82(TM) system (copyright 1983,
 Carnegie Mellon University). Gaussian is a federally registered
 trademark of Gaussian, Inc.
  
 This software contains proprietary and confidential information,
 including trade secrets, belonging to Gaussian, Inc.
  
 This software is provided under written license and may be
 used, copied, transmitted, or stored only in accord with that
 written license.
  
 The following legend is applicable only to US Government
 contracts under FAR:
  
                    RESTRICTED RIGHTS LEGEND
  
 Use, reproduction and disclosure by the US Government is
 subject to restrictions as set forth in subparagraphs (a)
 and (c) of the Commercial Computer Software - Restricted
 Rights clause in FAR 52.227-19.
  
 Gaussian, Inc.
 340 Quinnipiac St., Bldg. 40, Wallingford CT 06492
  
  
 ---------------------------------------------------------------
 Warning -- This program may not be used in any manner that
 competes with the business of Gaussian, Inc. or will provide
 assistance to any competitor of Gaussian, Inc.  The licensee
 of this program is prohibited from giving any competitor of
 Gaussian, Inc. access to this program.  By using this program,
 the user acknowledges that Gaussian, Inc. is engaged in the
 business of creating and licensing software in the field of
 computational chemistry and represents and warrants to the
 licensee that it is not a competitor of Gaussian, Inc. and that
 it will not use this program in any manner prohibited above.
 ---------------------------------------------------------------
  

 Cite this work as:
 Gaussian 09, Revision B.01,
 M. J. Frisch, G. W. Trucks, H. B. Schlegel, G. E. Scuseria, 
 M. A. Robb, J. R. Cheeseman, G. Scalmani, V. Barone, B. Mennucci, 
 G. A. Petersson, H. Nakatsuji, M. Caricato, X. Li, H. P. Hratchian, 
 A. F. Izmaylov, J. Bloino, G. Zheng, J. L. Sonnenberg, M. Hada, 
 M. Ehara, K. Toyota, R. Fukuda, J. Hasegawa, M. Ishida, T. Nakajima, 
 Y. Honda, O. Kitao, H. Nakai, T. Vreven, J. A. Montgomery, Jr., 
 J. E. Peralta, F. Ogliaro, M. Bearpark, J. J. Heyd, E. Brothers, 
 K. N. Kudin, V. N. Staroverov, T. Keith, R. Kobayashi, J. Normand, 
 K. Raghavachari, A. Rendell, J. C. Burant, S. S. Iyengar, J. Tomasi, 
 M. Cossi, N. Rega, J. M. Millam, M. Klene, J. E. Knox, J. B. Cross, 
 V. Bakken, C. Adamo, J. Jaramillo, R. Gomperts, R. E. Stratmann, 
 O. Yazyev, A. J. Austin, R. Cammi, C. Pomelli, J. W. Ochterski, 
 R. L. Martin, K. Morokuma, V. G. Zakrzewski, G. A. Voth, 
 P. Salvador, J. J. Dannenberg, S. Dapprich, A. D. Daniels, 
 O. Farkas, J. B. Foresman, J. V. Ortiz, J. Cioslowski, 
 and D. J. Fox, Gaussian, Inc., Wallingford CT, 2010.
 
 ******************************************
 Gaussian 09:  EM64L-G09RevB.01 12-Aug-2010
                11-Dec-2017 
 ******************************************
 ------------------
 #p hf/6-31g* force
 ------------------
 1/10=7,30=1,38=1/1,3;
 2/12=2,17=6,18=5,40=1/2;
 3/5=1,6=6,7=1,11=9,16=1,25=1,30=1,71=1/1,2,3;
 4//1;
 5/5=2,38=5/2;
 6/7=2,8=2,9=2,10=2,28=1/1;
 7/29=1/1,2,3,16;
 1/10=7,30=1/3;
 99//99;
 Leave Link    1 at Mon Dec 11 11:43:50 2017, MaxMem=          0 cpu:       0.0
 (Enter /shared/apps/gaussian/G09_LINUX_LINDA/g09/l101.exe)
 ------------------------------
 Gaussian input prepared by ASE
 ------------------------------
 Symbolic Z-matrix:
 Charge =  0 Multiplicity = 1
 C                     0.7608    0.9031   -0.0637 
 C                    -0.2241    0.7139    1.0841 
 C                     1.0511   -0.4206   -0.7631 
 H                     1.7092    1.3273    0.3309 
 H                     0.3322    1.6189   -0.7974 
 H                    -1.403     0.2049    0.6103 
 H                    -0.4263    1.6933    1.5668 
 H                     0.1966    0.0218    1.8444 
 H                     0.1161   -0.8487   -1.1831 
 H                     1.7687   -0.2521   -1.5935 
 H                     1.4982   -1.1446   -0.0489 
 O                    -3.02616  -1.60486   0.10456 
 O                    -2.1659   -0.6457    0.3726 
 H                    -3.89823  -1.2484    0.40971 
 
 NAtoms=     14 NQM=     14 NQMF=      0 NMic=      0 NMicF=      0 NTot=     14.
                    Isotopes and Nuclear Properties:
 (Nuclear quadrupole moments (NQMom) in fm**2, nuclear magnetic moments (NMagM)
  in nuclear magnetons)

  Atom         1           2           3           4           5           6           7           8           9          10
 IAtWgt=          12          12          12           1           1           1           1           1           1           1
 AtmWgt=  12.0000000  12.0000000  12.0000000   1.0078250   1.0078250   1.0078250   1.0078250   1.0078250   1.0078250   1.0078250
 NucSpn=           0           0           0           1           1           1           1           1           1           1
 AtZEff=   0.0000000   0.0000000   0.0000000   0.0000000   0.0000000   0.0000000   0.0000000   0.0000000   0.0000000   0.0000000
 NQMom=    0.0000000   0.0000000   0.0000000   0.0000000   0.0000000   0.0000000   0.0000000   0.0000000   0.0000000   0.0000000
 NMagM=    0.0000000   0.0000000   0.0000000   2.7928460   2.7928460   2.7928460   2.7928460   2.7928460   2.7928460   2.7928460

  Atom        11          12          13          14
 IAtWgt=           1          16          16           1
 AtmWgt=   1.0078250  15.9949146  15.9949146   1.0078250
 NucSpn=           1           0           0           1
 AtZEff=   0.0000000   0.0000000   0.0000000   0.0000000
 NQMom=    0.0000000   0.0000000   0.0000000   0.0000000
 NMagM=    2.7928460   0.0000000   0.0000000   2.7928460
 Leave Link  101 at Mon Dec 11 11:43:51 2017, MaxMem=   33554432 cpu:       0.1
 (Enter /shared/apps/gaussian/G09_LINUX_LINDA/g09/l103.exe)

 GradGradGradGradGradGradGradGradGradGradGradGradGradGradGradGradGradGrad
 Berny optimization.
 Initialization pass.
 Trust Radius=3.00D-01 FncErr=1.00D-07 GrdErr=1.00D-07
 Number of steps in this run=      2 maximum allowed number of steps=      2.
 GradGradGradGradGradGradGradGradGradGradGradGradGradGradGradGradGradGrad

 Leave Link  103 at Mon Dec 11 11:43:51 2017, MaxMem=   33554432 cpu:       0.0
 (Enter /shared/apps/gaussian/G09_LINUX_LINDA/g09/l202.exe)
                          Input orientation:                          
 ---------------------------------------------------------------------
 Center     Atomic      Atomic             Coordinates (Angstroms)
 Number     Number       Type             X           Y           Z
 ---------------------------------------------------------------------
      1          6           0        0.760800    0.903100   -0.063700
      2          6           0       -0.224100    0.713900    1.084100
      3          6           0        1.051100   -0.420600   -0.763100
      4          1           0        1.709200    1.327300    0.330900
      5          1           0        0.332200    1.618900   -0.797400
      6          1           0       -1.403000    0.204900    0.610300
      7          1           0       -0.426300    1.693300    1.566800
      8          1           0        0.196600    0.021800    1.844400
      9          1           0        0.116100   -0.848700   -1.183100
     10          1           0        1.768700   -0.252100   -1.593500
     11          1           0        1.498200   -1.144600   -0.048900
     12          8           0       -3.026164   -1.604857    0.104564
     13          8           0       -2.165900   -0.645700    0.372600
     14          1           0       -3.898225   -1.248400    0.409713
 ---------------------------------------------------------------------
                    Distance matrix (angstroms):
                    1          2          3          4          5
     1  C    0.000000
     2  C    1.524228   0.000000
     3  C    1.524997   2.515029   0.000000
     4  H    1.111358   2.163612   2.164506   0.000000
     5  H    1.111028   2.160680   2.162765   1.803946   0.000000
     6  H    2.371453   1.368712   2.880987   3.320186   2.644227
     7  H    2.166138   1.110454   3.475589   2.494347   2.484009
     8  H    2.176202   1.110877   2.779378   2.506586   3.090020
     9  H    2.176579   2.774464   1.110808   3.092756   2.506893
    10  H    2.165788   3.474759   1.110363   2.490253   2.489568
    11  H    2.176477   2.775613   1.110926   2.509793   3.091398
    12  O    4.545246   3.766655   4.333519   5.574267   4.741810
    13  O    3.339867   2.474941   3.419002   4.348663   3.569008
    14  H    5.153600   4.219552   5.153306   6.171196   5.251193
                    6          7          8          9         10
     6  H    0.000000
     7  H    2.020933   0.000000
     8  H    2.028608   1.805264   0.000000
     9  H    2.575659   3.783902   3.151191   0.000000
    10  H    3.889121   4.311624   3.790208   1.804286   0.000000
    11  H    3.266903   3.790496   2.576672   1.812227   1.804305
    12  O    2.483073   4.446939   4.007400   3.479034   5.263468
    13  O    1.167064   3.150118   2.862369   2.769284   4.416056
    14  H    2.894558   4.695393   4.520988   4.337237   6.092579
                   11         12         13         14
    11  H    0.000000
    12  O    4.550303   0.000000
    13  O    3.721853   1.316009   0.000000
    14  H    5.416872   0.990287   1.834551   0.000000
 Stoichiometry    C3H9O2
 Framework group  C1[X(C3H9O2)]
 Deg. of freedom    36
 Full point group                 C1      NOp   1
 Largest Abelian subgroup         C1      NOp   1
 Largest concise Abelian subgroup C1      NOp   1
                         Standard orientation:                         
 ---------------------------------------------------------------------
 Center     Atomic      Atomic             Coordinates (Angstroms)
 Number     Number       Type             X           Y           Z
 ---------------------------------------------------------------------
      1          6           0       -1.848190   -0.249411   -0.319855
      2          6           0       -0.769085   -1.169017    0.239723
      3          6           0       -1.635345    1.189885    0.137025
      4          1           0       -2.845450   -0.601071    0.022089
      5          1           0       -1.821292   -0.289272   -1.429842
      6          1           0        0.464627   -0.755948   -0.185365
      7          1           0       -0.941263   -2.206147   -0.117804
      8          1           0       -0.796018   -1.165644    1.350268
      9          1           0       -0.651035    1.565351   -0.215188
     10          1           0       -2.433579    1.835489   -0.285970
     11          1           0       -1.677506    1.253283    1.245339
     12          8           0        2.631112    0.437994    0.030276
     13          8           0        1.482892   -0.194786   -0.084012
     14          1           0        3.305203   -0.210440   -0.294999
 ---------------------------------------------------------------------
 Rotational constants (GHZ):      8.3478799      1.8933031      1.6225078
 Leave Link  202 at Mon Dec 11 11:43:51 2017, MaxMem=   33554432 cpu:       0.0
 (Enter /shared/apps/gaussian/G09_LINUX_LINDA/g09/l301.exe)
 Standard basis: 6-31G(d) (6D, 7F)
 Ernie: Thresh=  0.10000D-02 Tol=  0.10000D-05 Strict=F.
 The combination of multiplicity 1 and    43 electrons is impossible.
 Error termination via Lnk1e in /shared/apps/gaussian/G09_LINUX_LINDA/g09/l301.exe at Mon Dec 11 11:43:52 2017.
 Job cpu time:  0 days  0 hours  0 minutes  0.4 seconds.
 File lengths (MBytes):  RWF=     15 Int=      0 D2E=      0 Chk=      1 Scr=      1
