22
Properties=species:S:1:pos:R:3:Z:I:1:forces:R:3 magmom=0 energy=-11944.8872942 dipole="0.1550165 0.3104789 -0.3979405" pbc="F F F"
C      -0.15650309       0.64194348      -0.55898372        6       0.00073060       0.00223861       0.01134540 
C       0.99855440       0.13894613       0.34586277        6      -0.01269338      -0.00101703       0.01151376 
C      -1.18988385      -0.43398095      -0.93659157        6       0.00260504       0.00000072       0.00667690 
C      -0.85968814       1.81123205       0.14206319        6       0.00991587       0.00083900      -0.00825365 
C      -0.67004934      -1.63471186      -1.73153334        6       0.00140943       0.00159352      -0.01205565 
C       2.10264550      -0.59576164      -0.40355044        6      -0.00817369       0.02526356       0.01541762 
N       0.51171321      -0.61233107       1.48023396        7      -0.00436805       0.00047087       0.02613033 
O       2.62513243       0.12981340      -1.38807778        8       0.01733536      -0.00127239      -0.02485990 
H       0.29298637       1.01547441      -1.47399166        1      -0.01800199       0.00982583       0.00353002 
H       1.49138354       1.02692012       0.73209433        1       0.00539042       0.00399688      -0.02098853 
H      -1.68676157      -0.78223900      -0.03596785        1      -0.00025670       0.00343283       0.01353614 
H      -1.95764252       0.05881728      -1.52733005        1       0.00273982      -0.01352848      -0.00037600 
H      -1.22891311       1.50806515       1.11526168        1      -0.00251382       0.00461169      -0.01421183 
H      -0.18142156       2.64767104       0.28208785        1       0.01698311      -0.00346189       0.02191120 
H      -1.69947018       2.17058181      -0.44412313        1      -0.00446128      -0.02304454      -0.02464876 
H      -1.49852862      -2.27382274      -2.01994308        1       0.00301400      -0.01017406      -0.01122256 
H      -0.16621444      -1.32392280      -2.64277584        1       0.00858497       0.02689158       0.01551995 
H       0.02246659      -2.24619674      -1.16331428        1       0.00474950       0.01221125      -0.00827422 
O       2.51555675      -1.67572767      -0.12587704        8       0.01388869      -0.03616946      -0.02198417 
H       0.21414868      -1.52428636       1.19272984        1      -0.00913883      -0.00175318       0.01422345 
H       1.25591443      -0.76508927       2.13289905        1      -0.01506939       0.00332644       0.02290709 
H       3.33785614      -0.36819565      -1.77710460        1      -0.01266952      -0.00428192      -0.01583666 
