32
Energy: -241840.122974 eV PBE+vdW (tier 2 basis)
C    0.539000  -0.998421  0.341131
C    0.298205  -0.807389  1.802657
O    1.160507  -0.240413  2.540435
H    0.338562  -0.062115  -0.202990
H    -0.072337  -1.795736  -0.092564
H    1.601467  -1.227733  0.194252
N    -0.864070  -1.217550  2.359037
C    -2.180823  -1.033398  1.743417
C    -2.313959  0.465654  1.389532
O    -1.626944  1.322180  2.046352
H    -0.871026  -1.183994  3.378843
H    -2.249945  -1.646303  0.835380
C    -3.261256  -1.528782  2.764851
C    -4.617323  -1.868095  2.122258
C    -3.433353  -0.575764  3.954584
C    -4.599470  -3.047814  1.150281
H    -2.838081  -2.478861  3.134787
H    -5.055195  -0.970575  1.658580
H    -5.299819  -2.110859  2.949724
H    -3.920728  0.364818  3.661604
H    -4.064313  -1.047010  4.717154
H    -2.485574  -0.323270  4.460070
H    -3.953385  -2.892268  0.272555
H    -5.607111  -3.244418  0.765358
H    -4.254412  -3.964988  1.645833
N    -3.118451  0.887518  0.426271
C    -3.906277  0.143234  -0.558809
H    -3.152718  1.904120  0.337893
H    -3.670332  0.529049  -1.557471
H    -4.977524  0.280835  -0.370593
H    -3.673754  -0.922359  -0.525363
Ba    0.352154  1.950994  3.367667
