32
Energy: -241839.684966 eV PBE+vdW (tier 2 basis)
C    -0.380742  0.507540  0.239439
C    -0.353718  0.359811  1.723820
O    0.695519  0.639132  2.383489
H    0.581921  0.224464  -0.199371
H    -0.523066  1.580026  0.026339
H    -1.200368  -0.029808  -0.245974
N    -1.445541  -0.068459  2.391153
C    -2.333925  -1.158111  1.938532
C    -1.382119  -2.334364  1.539663
O    -0.248564  -2.385514  2.141929
H    -1.388148  0.060315  3.398926
H    -2.786727  -1.524271  2.876124
C    -3.538679  -0.733121  1.042244
C    -3.902710  0.752823  1.254478
C    -4.741155  -1.637291  1.367905
C    -5.082720  1.215058  0.397299
H    -3.259130  -0.842022  -0.017924
H    -3.034633  1.386269  1.025248
H    -4.129463  0.919978  2.320713
H    -5.499034  -1.594291  0.578442
H    -5.216753  -1.303608  2.301299
H    -4.473946  -2.692378  1.504078
H    -5.230870  2.295037  0.513888
H    -6.023894  0.728498  0.679310
H    -4.907155  1.020690  -0.670369
N    -1.644965  -3.305134  0.675951
C    -2.747998  -3.620802  -0.240630
H    -0.900273  -4.003410  0.673744
H    -2.312876  -4.130375  -1.106647
H    -3.259694  -2.723521  -0.583423
H    -3.464445  -4.297827  0.240406
Ba    1.734586  -1.423585  3.246823
