32
Energy: -241840.126087 eV PBE+vdW (tier 2 basis)
C    0.573528  0.989529  0.869598
C    0.133489  0.528730  2.220603
O    0.972867  0.342441  3.154792
H    0.726731  2.080392  0.870283
H    -0.140559  0.736310  0.079819
H    1.545871  0.533472  0.648280
N    -1.178175  0.330908  2.476161
C    -2.243858  1.242824  2.043633
C    -1.856567  2.647107  2.552561
O    -1.135566  2.750086  3.605723
H    -1.365070  -0.123332  3.370994
H    -2.306775  1.243964  0.946763
C    -3.593427  0.714569  2.626993
C    -3.924201  -0.646705  1.976352
C    -4.750124  1.708848  2.502181
C    -5.048335  -1.413956  2.674535
H    -3.409182  0.553647  3.707866
H    -3.022596  -1.278491  1.956677
H    -4.190022  -0.469535  0.921046
H    -4.545461  2.672493  2.986177
H    -5.637306  1.296822  2.995053
H    -5.022454  1.884720  1.453030
H    -5.179851  -2.396163  2.205360
H    -6.012761  -0.895880  2.611136
H    -4.824236  -1.584901  3.736977
N    -2.233603  3.743845  1.913491
C    -3.003023  3.905627  0.677638
H    -1.954925  4.610235  2.376022
H    -2.497517  4.644889  0.046215
H    -4.014792  4.262098  0.904732
H    -3.074190  2.962498  0.131754
Ba    0.734370  1.964995  5.009032
