32
Energy: -241840.775127 eV PBE+vdW (tier 2 basis)
C    0.194209  -0.140503  0.058873
C    -0.177483  -0.168350  1.505620
O    0.702793  0.007449  2.404629
H    -0.646312  -0.352189  -0.610011
H    0.997690  -0.864321  -0.128829
H    0.597273  0.854010  -0.180029
N    -1.459793  -0.369480  1.835291
C    -2.017397  -0.262572  3.193452
C    -1.674198  -1.532522  4.004487
O    -0.588994  -1.554983  4.668382
H    -2.123991  -0.494426  1.074629
H    -1.452474  0.535105  3.698771
C    -3.493118  0.212488  3.147385
C    -3.977093  0.556555  4.571404
C    -4.476336  -0.698860  2.390311
C    -5.322879  1.283323  4.611215
H    -3.434162  1.161723  2.586875
H    -3.215644  1.189026  5.057018
H    -4.040922  -0.365494  5.173476
H    -5.345940  -0.116279  2.066169
H    -4.889033  -1.501229  3.022475
H    -4.065379  -1.156603  1.477220
H    -6.147157  0.655209  4.251324
H    -5.302859  2.198901  4.004542
H    -5.566446  1.574751  5.639527
N    -2.493292  -2.568051  3.977931
C    -2.283848  -3.827738  4.692071
H    -3.347113  -2.468179  3.432891
H    -1.779425  -4.557755  4.045557
H    -3.257467  -4.229652  4.988691
H    -1.676816  -3.647453  5.583185
Ba    1.639605  -0.564900  4.560468
