32
Energy: -241840.623192 eV PBE+vdW (tier 2 basis)
C    0.096350  0.089432  -0.114795
C    0.041902  0.133669  1.381402
O    1.114797  0.163096  2.049298
H    0.653707  0.962835  -0.478998
H    -0.887724  0.068366  -0.594073
H    0.662292  -0.801057  -0.420685
N    -1.174277  0.141995  1.952479
C    -1.617052  0.115896  3.371594
C    -1.072584  1.316378  4.158709
O    0.140153  1.387105  4.522957
H    -1.943077  0.100171  1.289347
H    -2.697675  0.273175  3.283169
C    -1.500439  -1.284193  4.054820
C    -2.504542  -1.427042  5.225232
C    -0.098894  -1.777514  4.436964
C    -2.176176  -0.709082  6.536668
H    -1.861992  -1.963775  3.265529
H    -2.597778  -2.503904  5.428377
H    -3.500426  -1.118346  4.869660
H    0.573486  -1.816166  3.567572
H    -0.166087  -2.804521  4.818885
H    0.332904  -1.184279  5.260370
H    -2.124192  0.383466  6.436549
H    -1.229867  -1.051579  6.975899
H    -2.956352  -0.919598  7.277933
N    -1.906455  2.302158  4.474760
C    -3.343684  2.427447  4.206612
H    -1.478187  3.046887  5.024238
H    -3.916622  1.661950  4.744893
H    -3.556291  2.375895  3.132497
H    -3.665501  3.409170  4.564930
Ba    2.387280  0.578962  4.057204
