32
Energy: -241840.218704 eV PBE+vdW (tier 2 basis)
C    -0.156563  0.257678  -0.475895
C    -0.131006  -0.156104  0.959327
O    0.956711  -0.478690  1.528850
H    0.039982  1.338059  -0.564295
H    -1.113295  0.040385  -0.962376
H    0.652280  -0.260959  -1.002443
N    -1.269323  -0.166787  1.687164
C    -2.301903  0.863550  1.598476
C    -1.652140  2.220309  1.960543
O    -0.520287  2.247323  2.549124
H    -1.176262  -0.600087  2.604871
H    -2.662801  0.910705  0.560469
C    -3.518922  0.524991  2.514192
C    -3.286205  0.757911  4.026367
C    -4.066042  -0.868646  2.180519
C    -2.242725  -0.102076  4.749325
H    -4.296342  1.247892  2.226165
H    -4.256463  0.583424  4.512922
H    -3.065817  1.821970  4.206574
H    -3.372524  -1.679971  2.437303
H    -4.301016  -0.963918  1.112430
H    -4.993246  -1.044105  2.739578
H    -2.323520  0.029137  5.835203
H    -1.205699  0.188768  4.489663
H    -2.357131  -1.176865  4.551760
N    -2.267706  3.354889  1.664075
C    -3.543219  3.570323  0.975641
H    -1.783561  4.193255  1.986135
H    -3.457942  4.477082  0.367949
H    -4.357414  3.705561  1.698848
H    -3.779050  2.732925  0.312768
Ba    1.566890  1.147357  3.290187
