32
Energy: -241840.071427 eV PBE+vdW (tier 2 basis)
C    0.058074  1.122702  -0.550178
C    0.202319  0.708511  0.878150
O    1.042016  1.274797  1.644066
H    -0.632772  1.977042  -0.632529
H    -0.314335  0.314783  -1.188553
H    1.033815  1.463562  -0.914517
N    -0.589431  -0.259760  1.385941
C    -2.020539  -0.393143  1.100317
C    -2.663221  0.968540  1.445909
O    -2.111619  1.713521  2.328050
H    -0.312686  -0.599675  2.306825
H    -2.163809  -0.602266  0.031157
C    -2.587369  -1.594923  1.932162
C    -2.304968  -2.944416  1.237452
C    -4.077592  -1.479924  2.271830
C    -0.846356  -3.317052  0.970192
H    -2.036373  -1.571660  2.892463
H    -2.878797  -2.974281  0.296284
H    -2.756065  -3.717325  1.876694
H    -4.352101  -2.302923  2.942138
H    -4.336665  -0.547414  2.790443
H    -4.711817  -1.578346  1.381825
H    -0.362843  -2.670031  0.226040
H    -0.790954  -4.340556  0.580505
H    -0.242265  -3.294359  1.889179
N    -3.753622  1.390923  0.825392
C    -4.547938  0.758063  -0.229388
H    -4.105423  2.287067  1.165138
H    -4.701656  1.480928  -1.038935
H    -5.524289  0.455896  0.168133
H    -4.042241  -0.123087  -0.629631
Ba    -0.078019  2.598061  3.412761
