32
Energy: -241840.648976 eV PBE+vdW (tier 2 basis)
C    -1.148327  -0.121068  -0.322063
C    -0.857309  -0.296096  1.137425
O    0.267858  -0.741607  1.500865
H    -2.148166  0.272330  -0.532189
H    -1.033901  -1.093355  -0.820712
H    -0.399475  0.551781  -0.760418
N    -1.834725  0.038353  1.997613
C    -1.977611  -0.058006  3.470560
C    -0.971780  0.808782  4.231884
O    0.274988  0.761560  4.006875
H    -2.680177  0.364998  1.539631
H    -2.956673  0.407206  3.635697
C    -2.159546  -1.504864  4.046613
C    -0.922698  -2.432503  4.092878
C    -3.318735  -2.185662  3.304187
C    0.004577  -2.271762  5.306806
H    -2.482775  -1.339443  5.089289
H    -0.387563  -2.371705  3.131130
H    -1.298342  -3.465226  4.112912
H    -3.041642  -2.454671  2.275739
H    -4.213676  -1.550018  3.261963
H    -3.601777  -3.110991  3.819655
H    0.356490  -1.241035  5.479958
H    0.870374  -2.951622  5.247580
H    -0.514645  -2.549383  6.233635
N    -1.434771  1.608654  5.187839
C    -2.820928  1.847243  5.607801
H    -0.710626  2.134793  5.676116
H    -2.800984  2.561988  6.435009
H    -3.296707  0.926853  5.966511
H    -3.412886  2.287108  4.795355
Ba    2.049866  -0.672089  3.131850
