32
Energy: -241840.276907 eV PBE+vdW (tier 2 basis)
C    -3.561698  -0.401487  -0.589042
C    -2.584426  0.277258  0.314931
O    -2.401421  1.532676  0.254770
H    -3.624545  0.165292  -1.524436
H    -4.566439  -0.397228  -0.136854
H    -3.287911  -1.439986  -0.803188
N    -1.896832  -0.437454  1.231844
C    -2.487715  -1.505243  2.032544
C    -3.602329  -0.869166  2.903839
O    -3.720029  0.396908  2.994072
H    -1.159085  0.086090  1.703989
H    -2.955167  -2.237870  1.359565
C    -1.373041  -2.231072  2.848167
C    -1.825568  -3.566372  3.472078
C    -0.735571  -1.322305  3.905922
C    -2.501244  -4.558468  2.523199
H    -0.616094  -2.474050  2.083656
H    -2.451732  -3.378297  4.360624
H    -0.917514  -4.034292  3.878651
H    -0.287184  -0.405231  3.492049
H    0.084918  -1.850827  4.406004
H    -1.455592  -1.033308  4.685692
H    -3.493227  -4.234000  2.163891
H    -2.657931  -5.520945  3.024091
H    -1.886008  -4.751479  1.633629
N    -4.424642  -1.682314  3.542483
C    -5.505052  -1.248591  4.431410
H    -4.284559  -2.682761  3.419328
H    -5.967142  -2.136217  4.870685
H    -6.265368  -0.692115  3.870099
H    -5.108912  -0.615683  5.233763
Ba    -3.276366  2.707194  2.238515
