32
Energy: -241840.724777 eV PBE+vdW (tier 2 basis)
C    -0.379758  -0.463164  -0.197914
C    -0.330365  -0.308203  1.289447
O    0.764077  -0.462597  1.908896
H    -1.366757  -0.266009  -0.628689
H    -0.079005  -1.489577  -0.451640
H    0.355941  0.207850  -0.659803
N    -1.473393  -0.010103  1.924577
C    -1.761239  0.043016  3.374348
C    -1.113706  1.273381  4.025351
O    0.142545  1.321537  4.212893
H    -2.289802  0.066753  1.324873
H    -2.848342  0.172286  3.419766
C    -1.444461  -1.256116  4.162580
C    -2.011266  -2.510580  3.462477
C    -1.938750  -1.102865  5.608422
C    -3.524196  -2.532134  3.232236
H    -0.347097  -1.387145  4.193404
H    -1.729488  -3.372607  4.084871
H    -1.489640  -2.661964  2.505240
H    -1.734138  -2.018156  6.176642
H    -3.022704  -0.932592  5.651352
H    -1.449701  -0.273767  6.138251
H    -3.867025  -1.746675  2.541670
H    -4.092305  -2.429494  4.165291
H    -3.819686  -3.487799  2.783469
N    -1.876917  2.282504  4.421266
C    -3.334574  2.431232  4.326063
H    -1.367868  3.040985  4.875343
H    -3.590785  3.436298  4.672099
H    -3.850215  1.705479  4.966602
H    -3.678027  2.333830  3.289855
Ba    2.245647  0.219398  3.682759
