32
Energy: -241839.32703 eV PBE+vdW (tier 2 basis)
C    -0.635378  0.629054  -0.324946
C    -0.497066  0.418094  1.145527
O    0.673354  0.488957  1.696593
H    -0.151105  1.567884  -0.623035
H    -1.679160  0.635402  -0.653951
H    -0.107932  -0.184210  -0.845148
N    -1.568417  0.168100  1.865342
C    -1.692473  -0.190071  3.283574
C    -3.235709  -0.415284  3.402159
O    -3.965456  0.239959  2.652288
H    -2.514976  0.282901  1.456897
H    -1.161861  -1.139461  3.451943
C    -1.100882  0.871922  4.278074
C    -1.567016  0.697013  5.748098
C    -1.244013  2.321377  3.800310
C    -2.896239  1.354830  6.132153
H    -0.016002  0.597325  4.321305
H    -0.777216  1.116553  6.390900
H    -1.583156  -0.376443  5.990769
H    -0.800552  2.511981  2.806740
H    -0.817717  3.024149  4.532590
H    -2.299612  2.600090  3.683885
H    -2.829797  2.449729  6.122700
H    -3.163524  1.062671  7.154753
H    -3.729253  1.067482  5.481005
N    -3.652412  -1.338834  4.278943
C    -5.065275  -1.632145  4.516739
H    -2.964076  -1.850251  4.820088
H    -5.216786  -2.716695  4.534807
H    -5.652734  -1.193661  3.705564
H    -5.394758  -1.205095  5.473152
Ba    2.086507  1.661393  3.097822
