32
Energy: -241840.774629 eV PBE+vdW (tier 2 basis)
C    1.287168  0.770878  0.892700
C    0.161850  0.350876  1.787227
O    -0.551412  -0.645867  1.474251
H    0.881915  0.994822  -0.103457
H    1.982085  -0.071116  0.772962
H    1.841252  1.642110  1.256553
N    -0.037268  1.068345  2.904319
C    -1.052687  0.992691  3.985035
C    -1.142540  -0.385458  4.659956
O    -1.646369  -1.398348  4.091446
H    0.607836  1.845694  3.016007
H    -0.639239  1.669337  4.745092
C    -2.436907  1.618328  3.634112
C    -3.243269  1.818370  4.935854
C    -3.258317  0.913268  2.547847
C    -4.495466  2.682646  4.774822
H    -2.182751  2.618045  3.242406
H    -2.586184  2.287985  5.685882
H    -3.524835  0.834406  5.349374
H    -2.679082  0.737414  1.630824
H    -4.107756  1.542117  2.256552
H    -3.705128  -0.021041  2.934149
H    -4.957659  2.863570  5.752245
H    -5.257692  2.207767  4.144276
H    -4.253945  3.661562  4.339070
N    -0.716146  -0.458533  5.914566
C    -0.796412  -1.665590  6.738842
H    -0.320875  0.375371  6.338356
H    -0.543589  -1.399550  7.768365
H    -0.090157  -2.424869  6.380579
H    -1.812589  -2.074472  6.708991
Ba    -2.194832  -2.347754  1.914795
