32
Energy: -241839.491483 eV PBE+vdW (tier 2 basis)
C    0.161762  -0.859900  0.705300
C    -0.041110  -0.354550  2.093366
O    1.000192  -0.294202  2.893435
H    1.040053  -0.375234  0.260958
H    -0.706818  -0.692193  0.062613
H    0.363878  -1.940606  0.736218
N    -1.195466  0.027062  2.558066
C    -2.517681  0.113730  1.931332
C    -3.246223  1.052453  2.951476
O    -2.679016  1.279136  4.036990
H    -1.313408  0.450078  3.522883
H    -2.428599  0.626611  0.962304
C    -3.172015  -1.301583  1.731995
C    -3.901741  -1.436954  0.377155
C    -4.010507  -1.755225  2.932765
C    -5.105023  -0.530692  0.109823
H    -2.317090  -1.994118  1.667123
H    -4.228307  -2.484899  0.305056
H    -3.168736  -1.302520  -0.435159
H    -4.932374  -1.172139  3.049392
H    -3.451655  -1.680304  3.875374
H    -4.302628  -2.804704  2.805160
H    -5.857864  -0.579992  0.908437
H    -5.609676  -0.837112  -0.814500
H    -4.813271  0.519961  -0.054771
N    -4.426009  1.556736  2.596224
C    -5.235515  2.405024  3.468255
H    -4.822247  1.268186  1.705933
H    -5.722263  3.179708  2.866892
H    -4.585755  2.872443  4.212821
H    -6.003333  1.814221  3.985301
Ba    2.753314  -0.103206  4.318424
