32
Energy: -241840.252875 eV PBE+vdW (tier 2 basis)
C    0.333626  0.063205  0.418932
C    0.019211  0.105824  1.879252
O    0.943291  0.225588  2.742722
H    0.355888  1.083234  0.002974
H    -0.394117  -0.522458  -0.152767
H    1.334535  -0.362729  0.289318
N    -1.261719  0.040676  2.301660
C    -2.367379  0.734967  1.648298
C    -2.095174  2.260641  1.783513
O    -1.143632  2.691303  2.513509
H    -1.365566  -0.061360  3.311715
H    -2.362157  0.482510  0.577756
C    -3.725235  0.264205  2.251332
C    -4.931251  0.650501  1.367856
C    -3.902277  0.710262  3.707571
C    -6.171993  -0.210297  1.625364
H    -3.650150  -0.835792  2.223603
H    -4.652034  0.547293  0.304768
H    -5.200463  1.707359  1.536573
H    -3.102332  0.355186  4.376353
H    -4.830383  0.299685  4.120502
H    -3.965128  1.805139  3.794396
H    -6.987117  0.086328  0.955077
H    -6.544011  -0.105134  2.652019
H    -5.962834  -1.272711  1.444456
N    -2.873460  3.090235  1.112602
C    -2.767873  4.550756  1.154025
H    -3.625899  2.684846  0.560246
H    -3.544339  4.970530  0.509613
H    -1.786794  4.874047  0.786591
H    -2.912863  4.917809  2.176998
Ba    0.923289  2.428415  3.844797
