32
Energy: -241840.718927 eV PBE+vdW (tier 2 basis)
C    -1.363871  0.031055  -0.303571
C    -0.781738  -0.180297  1.059977
O    0.328276  -0.773725  1.185457
H    -2.319346  0.565412  -0.299589
H    -1.503532  -0.947572  -0.782955
H    -0.644029  0.587943  -0.918128
N    -1.482662  0.282324  2.107451
C    -1.259324  0.211577  3.575715
C    0.084085  0.823855  3.999888
O    1.195256  0.254070  3.794157
H    -2.360575  0.727674  1.854845
H    -2.032053  0.888223  3.964756
C    -1.618558  -1.169700  4.209813
C    -1.890146  -1.041641  5.729856
C    -0.698923  -2.353635  3.885201
C    -0.680734  -0.979188  6.667012
H    -2.591950  -1.399513  3.745938
H    -2.505718  -1.907723  6.013190
H    -2.537871  -0.166493  5.898329
H    -0.602908  -2.521125  2.803436
H    -1.126542  -3.273261  4.305415
H    0.287635  -2.245248  4.367864
H    -1.023958  -0.879911  7.703751
H    -0.017191  -0.125740  6.472147
H    -0.075338  -1.894370  6.627203
N    0.029567  1.987408  4.637018
C    1.201527  2.679796  5.174550
H    -0.880396  2.410480  4.792126
H    1.740221  2.026780  5.871955
H    0.863082  3.573317  5.704946
H    1.877653  2.977392  4.364156
Ba    2.298059  -1.423168  2.410093
