32
Energy: -241839.431558 eV PBE+vdW (tier 2 basis)
C    -0.028903  0.081474  0.083917
C    -0.173654  0.393941  1.534526
O    0.917462  0.570322  2.245911
H    0.583827  0.856590  -0.395790
H    -0.988513  0.011528  -0.435115
H    0.502520  -0.873420  -0.032910
N    -1.322756  0.508357  2.135293
C    -2.698830  0.371732  1.641792
C    -3.477285  1.121210  2.766586
O    -2.902181  1.238111  3.865441
H    -1.407589  0.769631  3.152605
H    -2.795103  0.879084  0.673882
C    -3.085581  -1.142017  1.503857
C    -4.278149  -1.382766  0.562532
C    -3.288584  -1.821821  2.861260
C    -4.058203  -0.972111  -0.893226
H    -2.207902  -1.605911  1.019343
H    -5.184818  -0.914911  0.971676
H    -4.481600  -2.463330  0.594802
H    -3.419856  -2.900992  2.717494
H    -2.437814  -1.680012  3.541044
H    -4.185255  -1.447036  3.373212
H    -4.925596  -1.241959  -1.507570
H    -3.186589  -1.484581  -1.325801
H    -3.909009  0.110286  -1.028366
N    -4.712459  1.590985  2.555342
C    -5.475302  1.737288  1.320076
H    -5.120835  2.006881  3.391351
H    -5.815409  2.775848  1.228648
H    -6.353364  1.079547  1.316603
H    -4.858681  1.504442  0.448668
Ba    2.752927  0.909495  3.534709
