32
Energy: -241840.757186 eV PBE+vdW (tier 2 basis)
C    -1.715325  -0.146434  -0.399785
C    -1.354549  0.234602  1.002951
O    -0.256597  -0.151538  1.497385
H    -0.930374  0.204268  -1.082740
H    -2.680915  0.248538  -0.731746
H    -1.733804  -1.242734  -0.471167
N    -2.234988  0.985276  1.682562
C    -2.268711  1.464771  3.085816
C    -1.125603  2.434061  3.422748
O    0.095606  2.103175  3.383050
H    -3.077480  1.206970  1.160342
H    -3.186454  2.067888  3.100087
C    -2.530959  0.373755  4.178567
C    -1.343170  -0.523344  4.589167
C    -3.766253  -0.445252  3.778597
C    -1.640358  -1.431152  5.788256
H    -2.795891  0.965925  5.072188
H    -0.499769  0.135866  4.876495
H    -1.044200  -1.147023  3.728288
H    -3.550055  -1.132662  2.949326
H    -4.601347  0.202125  3.478362
H    -4.122015  -1.046675  4.621475
H    -2.017866  -0.852467  6.641607
H    -0.734775  -1.953841  6.120542
H    -2.382457  -2.199157  5.543598
N    -1.482189  3.651328  3.815581
C    -0.536005  4.684035  4.243408
H    -2.469412  3.889923  3.815433
H    0.096359  4.306455  5.055029
H    -1.103981  5.546633  4.600924
H    0.099303  4.993004  3.404422
Ba    1.614234  0.231676  2.961231
