32
Energy: -241840.043126 eV PBE+vdW (tier 2 basis)
C    -1.283726  1.463310  0.646829
C    -0.554853  0.638954  1.658819
O    0.718339  0.668571  1.693041
H    -1.658007  0.832745  -0.173969
H    -0.589130  2.198665  0.229984
H    -2.145970  1.978912  1.083154
N    -1.197617  -0.138534  2.559446
C    -2.332198  -1.038324  2.290718
C    -1.777559  -2.162906  1.362487
O    -0.646128  -2.040777  0.786441
H    -0.562829  -0.489843  3.276156
H    -2.548872  -1.513341  3.260991
C    -3.662013  -0.347071  1.849785
C    -4.012931  0.767087  2.864105
C    -4.819054  -1.349835  1.724269
C    -5.080663  1.741390  2.364155
H    -3.514816  0.106206  0.858360
H    -3.108110  1.333928  3.126830
H    -4.345688  0.293236  3.802364
H    -4.744040  -1.995808  0.840531
H    -5.761352  -0.802983  1.608306
H    -4.931373  -1.966345  2.630782
H    -5.251460  2.527896  3.108780
H    -6.048108  1.256542  2.185023
H    -4.777675  2.234225  1.428898
N    -2.486439  -3.269664  1.228152
C    -2.098102  -4.414553  0.402172
H    -3.380927  -3.316708  1.709786
H    -2.938644  -5.112257  0.363381
H    -1.231945  -4.928586  0.837588
H    -1.856134  -4.087188  -0.615090
Ba    1.700288  -1.279468  0.590214
