32
Energy: -241840.754622 eV PBE+vdW (tier 2 basis)
C    0.022816  0.101329  -0.407561
C    -0.041731  -0.240776  1.049145
O    1.024010  -0.472747  1.688850
H    -0.954553  0.296211  -0.860694
H    0.504789  -0.729622  -0.941115
H    0.663854  0.982183  -0.544150
N    -1.256529  -0.285733  1.617586
C    -1.713970  -0.674632  2.973889
C    -1.206535  0.268237  4.076896
O    0.024271  0.421035  4.331215
H    -2.018933  -0.089287  0.975916
H    -2.796914  -0.504470  2.906838
C    -1.605970  -2.196971  3.327550
C    -0.218854  -2.739474  3.734723
C    -2.241394  -3.017819  2.196644
C    -0.246862  -4.183861  4.247766
H    -2.250774  -2.297547  4.218291
H    0.169218  -2.105675  4.556873
H    0.463597  -2.676685  2.868622
H    -3.222804  -2.617815  1.907829
H    -2.404742  -4.052912  2.513906
H    -1.604591  -3.042395  1.301775
H    0.733529  -4.481605  4.640039
H    -0.503708  -4.893519  3.453519
H    -0.975960  -4.303344  5.060012
N    -2.144130  0.884148  4.789050
C    -1.902553  1.769150  5.927427
H    -3.114149  0.739395  4.521361
H    -2.510289  1.441334  6.778583
H    -2.178640  2.798315  5.665814
H    -0.844363  1.732166  6.193856
Ba    2.269678  -0.350442  3.743994
