32
Energy: -241840.725972 eV PBE+vdW (tier 2 basis)
C    -0.519761  -0.845492  -0.005094
C    -0.484029  -0.502949  1.449191
O    0.495362  0.144022  1.937307
H    -1.390005  -1.447070  -0.287118
H    0.396802  -1.381354  -0.282803
H    -0.530968  0.089573  -0.583209
N    -1.510351  -0.882861  2.217869
C    -1.724396  -0.486462  3.620307
C    -0.868274  -1.374471  4.549675
O    0.352087  -1.058061  4.727718
H    -2.263368  -1.403923  1.773558
H    -1.263641  0.508292  3.721989
C    -3.231246  -0.281956  3.946880
C    -4.190396  -1.502780  3.903277
C    -3.769476  0.869718  3.079973
C    -4.217730  -2.372654  2.640928
H    -3.231386  0.072593  4.990774
H    -5.195663  -1.085385  4.058329
H    -4.059732  -2.145565  4.791763
H    -3.863801  0.596269  2.020548
H    -3.127584  1.759180  3.139246
H    -4.766871  1.162973  3.427316
H    -4.376404  -1.778643  1.728199
H    -5.054959  -3.079302  2.687789
H    -3.313314  -2.990028  2.516717
N    -1.406604  -2.432680  5.126018
C    -0.717928  -3.358687  6.024085
H    -2.395151  -2.599456  4.944133
H    0.217611  -2.908545  6.363286
H    -0.506165  -4.302158  5.504748
H    -1.360542  -3.564148  6.887015
Ba    2.116884  0.296011  3.720588
