32
Energy: -241839.454484 eV PBE+vdW (tier 2 basis)
C    0.271029  -0.541531  0.678631
C    -0.201044  0.519834  1.612930
O    0.509097  1.620676  1.715440
H    0.532466  -0.091782  -0.287415
H    -0.471262  -1.328608  0.520302
H    1.182907  -1.003942  1.083766
N    -1.279300  0.416074  2.335494
C    -2.283172  -0.648045  2.458046
C    -3.475550  0.155173  3.061755
O    -3.223450  1.237061  3.619724
H    -1.614144  1.200078  2.953129
H    -2.548837  -1.026301  1.460452
C    -1.753078  -1.831521  3.331971
C    -2.715165  -3.051010  3.344457
C    -1.306624  -1.387467  4.727807
C    -3.714655  -3.161476  4.501102
H    -0.853575  -2.167081  2.788597
H    -2.081985  -3.949740  3.362973
H    -3.241818  -3.106942  2.375962
H    -0.522645  -0.619033  4.683075
H    -0.888525  -2.241226  5.274885
H    -2.133806  -0.983236  5.324433
H    -3.206180  -3.320523  5.459687
H    -4.368825  -4.027451  4.341464
H    -4.357033  -2.280233  4.616502
N    -4.696468  -0.366127  2.918042
C    -5.904855  0.226347  3.485757
H    -4.783875  -1.262619  2.450338
H    -6.684289  0.286086  2.718009
H    -5.665202  1.230461  3.844534
H    -6.272577  -0.378617  4.325050
Ba    1.673233  3.559320  1.905317
