32
Energy: -241840.697027 eV PBE+vdW (tier 2 basis)
C    0.831453  1.768028  1.725199
C    0.344749  0.797490  2.757056
O    1.130405  0.391015  3.658804
H    1.691533  1.328289  1.202265
H    1.193954  2.673459  2.230348
H    0.071754  2.050727  0.989299
N    -0.932346  0.394290  2.668978
C    -1.760958  -0.541000  3.469526
C    -1.775692  -0.219006  4.972833
O    -0.771607  -0.391438  5.722343
H    -1.433919  0.791989  1.880136
H    -2.770872  -0.305665  3.107073
C    -1.630534  -2.073226  3.149745
C    -0.488794  -2.904416  3.779028
C    -1.745409  -2.294427  1.635708
C    0.898592  -2.860716  3.124943
H    -2.550197  -2.476051  3.606976
H    -0.826867  -3.950708  3.744226
H    -0.449152  -2.694868  4.864123
H    -1.789265  -3.367496  1.411926
H    -0.892822  -1.876542  1.084690
H    -2.662007  -1.844824  1.230719
H    1.618929  -3.474831  3.689777
H    1.304499  -1.845803  2.986208
H    0.881678  -3.298476  2.119339
N    -2.934675  0.199220  5.470654
C    -3.172894  0.488323  6.885210
H    -3.708172  0.347906  4.829099
H    -4.238306  0.356448  7.094974
H    -2.885234  1.521008  7.121829
H    -2.590687  -0.200564  7.504065
Ba    1.638866  -0.835135  5.672903
