32
Energy: -241840.126275 eV PBE+vdW (tier 2 basis)
C    0.357434  2.047198  0.124674
C    0.493423  1.066241  1.242811
O    1.388844  1.206158  2.131605
H    -0.177071  2.946389  0.469529
H    -0.168577  1.635688  -0.742253
H    1.361701  2.371949  -0.173499
N    -0.361082  0.024170  1.338068
C    -1.808933  0.132926  1.129188
C    -2.310874  1.250711  2.064380
O    -1.668442  1.492494  3.145730
H    -0.096287  -0.669535  2.038450
H    -2.011599  0.397328  0.082939
C    -2.442876  -1.261452  1.432698
C    -1.883056  -2.326513  0.458657
C    -3.974268  -1.253814  1.464183
C    -2.192166  -2.109897  -1.023078
H    -2.099507  -1.527495  2.450785
H    -2.298545  -3.291485  0.784021
H    -0.794180  -2.421393  0.591034
H    -4.381963  -0.582469  2.230833
H    -4.412637  -0.987830  0.494972
H    -4.328932  -2.262633  1.707213
H    -3.269363  -2.063656  -1.226496
H    -1.792462  -2.943484  -1.612577
H    -1.727648  -1.197292  -1.426558
N    -3.375711  1.978927  1.765192
C    -4.237837  1.957682  0.581265
H    -3.634855  2.651945  2.487710
H    -4.386939  2.988180  0.239598
H    -5.211902  1.519454  0.829049
H    -3.783947  1.378424  -0.225549
Ba    0.459326  1.719643  4.369063
