32
Energy: -241840.220708 eV PBE+vdW (tier 2 basis)
C    -0.212428  0.784262  -0.651480
C    -0.122953  0.160184  0.703213
O    0.994786  -0.208380  1.181093
H    -0.064072  1.873695  -0.580348
H    -1.176207  0.600241  -1.137870
H    0.597422  0.387380  -1.273436
N    -1.233597  0.002320  1.453660
C    -2.289617  1.004055  1.568199
C    -1.664115  2.270155  2.205572
O    -0.501114  2.213943  2.732069
H    -1.097406  -0.555638  2.297175
H    -2.646285  1.262934  0.560481
C    -3.490604  0.436084  2.381305
C    -3.090018  0.034261  3.816654
C    -4.160627  -0.693413  1.590464
C    -4.285300  -0.262816  4.727062
H    -4.213254  1.261640  2.468879
H    -2.495095  0.844181  4.273877
H    -2.444696  -0.863877  3.794724
H    -4.453704  -0.364182  0.584634
H    -5.071344  -1.029066  2.098077
H    -3.502438  -1.566612  1.482881
H    -4.970276  0.594450  4.775390
H    -3.949052  -0.476322  5.748476
H    -4.856610  -1.133524  4.384887
N    -2.328039  3.415593  2.201840
C    -3.633446  3.735648  1.617553
H    -1.853360  4.179717  2.683203
H    -3.581440  4.741677  1.187883
H    -4.416327  3.720019  2.386209
H    -3.891454  3.032461  0.821035
Ba    1.709858  1.177310  3.092858
