32
Energy: -241840.287352 eV PBE+vdW (tier 2 basis)
C    0.696301  -0.305602  3.521530
C    -0.463740  -0.251329  4.462224
O    -0.331913  -0.595130  5.679101
H    1.275831  0.629842  3.571890
H    0.391525  -0.464946  2.481875
H    1.362008  -1.116026  3.838844
N    -1.667819  0.183010  4.036589
C    -1.848987  1.322097  3.144051
C    -1.468349  2.601285  3.946795
O    -1.079614  2.524769  5.156935
H    -2.427256  0.044965  4.704079
H    -1.132266  1.231496  2.314018
C    -3.284275  1.357387  2.553164
C    -4.356425  1.511815  3.651814
C    -3.504997  0.144095  1.643266
C    -5.748828  1.852928  3.114681
H    -3.330649  2.259393  1.918134
H    -4.048664  2.304150  4.357743
H    -4.429485  0.576515  4.236163
H    -2.738289  0.080361  0.859634
H    -4.475627  0.211815  1.140349
H    -3.491990  -0.796680  2.210568
H    -5.730361  2.774600  2.517310
H    -6.454379  2.006113  3.939647
H    -6.154055  1.051159  2.486255
N    -1.544682  3.763301  3.322840
C    -1.220225  5.057993  3.927177
H    -1.871530  3.762263  2.359971
H    -1.328010  5.832007  3.163210
H    -0.187473  5.059595  4.294376
H    -1.903471  5.275967  4.756860
Ba    -0.460501  1.311796  7.225647
