32
Energy: -241839.319315 eV PBE+vdW (tier 2 basis)
C    0.633153  0.033021  0.841523
C    0.519234  -0.486805  2.233837
O    1.606953  -0.543909  2.968882
H    1.177618  0.985950  0.848491
H    -0.337801  0.177387  0.360289
H    1.217417  -0.674719  0.235899
N    -0.599862  -0.889223  2.764208
C    -1.967736  -0.981063  2.230218
C    -2.781294  -1.000371  3.557377
O    -2.203432  -1.453403  4.562585
H    -0.651882  -1.234092  3.754099
H    -2.193204  -0.088178  1.633530
C    -2.105757  -2.255479  1.325561
C    -3.480091  -2.375927  0.623705
C    -1.681464  -3.545887  2.033973
C    -4.588115  -3.119980  1.375297
H    -1.375382  -2.065616  0.520049
H    -3.296926  -2.906742  -0.322220
H    -3.823559  -1.374932  0.320455
H    -2.311406  -3.777815  2.901028
H    -0.639823  -3.505994  2.381179
H    -1.753766  -4.387922  1.334425
H    -5.529128  -3.049571  0.816064
H    -4.771976  -2.731224  2.384379
H    -4.360040  -4.187882  1.477561
N    -4.031344  -0.520827  3.602739
C    -4.832021  0.145460  2.581311
H    -4.459722  -0.625424  4.521394
H    -5.587405  -0.529772  2.159653
H    -4.201374  0.517772  1.769236
H    -5.340169  1.003724  3.035086
Ba    3.443825  -0.660398  4.297546
