36
Energy: -39736.7074814 eV PBE+vdW (tier 2 basis)
C    -2.501213  -0.477731  2.168969
C    -1.197311  -0.118260  2.821595
O    -0.161442  -0.053609  2.010940
H    -3.316537  -0.544173  2.894280
H    -2.399977  -1.434772  1.639648
H    -2.760431  0.276226  1.413268
N    -1.179535  0.094340  4.106723
C    0.047584  0.345511  4.878449
C    0.805794  1.621656  4.489236
O    1.601724  1.686536  3.497432
H    -4.142663  -0.511593  5.658261
H    -0.314509  0.537183  5.902587
C    0.994071  -0.875419  4.981864
C    0.291130  -2.233941  5.158759
C    -0.677921  -2.376476  6.339570
N    -1.935255  -1.664082  6.092844
C    -3.042566  -1.802399  6.816548
N    -3.084552  -2.613056  7.885725
N    -4.145212  -1.110422  6.473121
H    1.684285  -0.698462  5.820714
H    1.623975  -0.950005  4.083113
H    1.075148  -2.990355  5.299215
H    -0.234671  -2.515212  4.234814
H    -0.888757  -3.449242  6.471897
H    -0.206159  -2.009796  7.268117
H    -1.928016  -0.977540  5.293358
H    -3.946124  -2.780271  8.389943
H    -2.273073  -3.141390  8.176048
H    -4.998964  -1.162665  7.012848
N    0.606141  2.690453  5.249221
C    1.228991  3.996065  5.036990
H    -0.048451  2.598248  6.020173
H    1.262935  4.528654  5.991703
H    0.651279  4.590106  4.316600
H    2.247178  3.860199  4.660638
Ca    1.629406  0.783622  1.560519
