36
Energy: -39737.5474435 eV PBE+vdW (tier 2 basis)
C    0.608360  -0.133915  0.539844
C    -0.089969  -0.330572  1.849136
O    0.383532  -1.113840  2.714486
H    0.668770  -1.103548  0.026634
H    1.639729  0.192067  0.727853
H    0.116956  0.588570  -0.119802
N    -1.231350  0.359258  2.054294
C    -2.162143  0.274159  3.200479
C    -1.477661  0.761832  4.498622
O    -0.707260  0.014014  5.158922
H    -1.525193  0.961623  1.291260
H    -2.963505  0.987266  2.960735
C    -2.781217  -1.126162  3.344411
C    -3.832882  -1.256668  4.468858
C    -3.867771  -2.640918  5.144468
N    -2.853544  -2.792716  6.201786
C    -1.549428  -3.060002  6.013391
N    -0.644060  -2.678014  7.029115
N    -0.953776  -3.517207  4.935675
H    -1.971060  -1.845277  3.490653
H    -3.235091  -1.383115  2.377679
H    -4.831635  -1.049300  4.060975
H    -3.670022  -0.504750  5.256670
H    -3.765514  -3.452747  4.410625
H    -4.838072  -2.797274  5.629247
H    -3.163504  -2.605486  7.150272
H    -0.092957  -3.464635  7.376969
H    -1.036400  -2.141528  7.801549
H    -1.583981  -3.944295  4.255479
N    -1.755839  2.004886  4.881069
C    -1.193356  2.672273  6.053900
H    -2.390375  2.547515  4.301478
H    -0.471398  3.438334  5.743686
H    -0.691133  1.931124  6.679664
H    -1.998821  3.151056  6.621639
Ca    0.577571  -1.778009  4.797279
