36
Energy: -39736.7967853 eV PBE+vdW (tier 2 basis)
C    0.161614  1.389175  0.736863
C    0.177546  0.233616  1.677887
O    1.044801  0.131872  2.589573
H    -0.338173  2.246208  1.215625
H    -0.344940  1.165877  -0.207476
H    1.195574  1.698270  0.543734
N    -0.767061  -0.747720  1.586059
C    -2.193609  -0.495016  1.408546
C    -2.643475  0.447517  2.553709
O    -1.976049  0.448011  3.634923
H    -0.588271  -1.510010  2.249861
H    -2.364895  -0.041132  0.423897
C    -3.013664  -1.806148  1.543347
C    -2.485976  -3.068633  0.835579
C    -1.401603  -3.893421  1.570179
N    -1.715676  -4.169207  2.976149
C    -1.312381  -3.432579  4.035998
N    -2.060714  -3.490997  5.167485
N    -0.260508  -2.601885  4.019135
H    -4.018198  -1.589219  1.157709
H    -3.155030  -2.022049  2.614130
H    -2.104705  -2.831771  -0.168506
H    -3.353282  -3.724873  0.675734
H    -0.415334  -3.419349  1.511286
H    -1.285982  -4.858096  1.060754
H    -2.389391  -4.909856  3.151156
H    -1.581730  -3.387062  6.055041
H    -2.919990  -4.029861  5.193778
H    0.446098  -2.945308  3.361138
N    -3.723534  1.204485  2.428085
C    -4.637158  1.330464  1.290965
H    -3.963237  1.738270  3.264490
H    -4.152330  1.020219  0.361352
H    -4.931742  2.380394  1.191190
H    -5.537915  0.724098  1.450634
Ca    -0.062510  -0.343120  4.488919
