36
Energy: -39737.502713 eV PBE+vdW (tier 2 basis)
C    -2.229738  2.248725  0.101124
C    -1.771322  1.087329  0.920692
O    -0.883165  0.299423  0.497154
H    -1.362656  2.883696  -0.126375
H    -2.999254  2.853498  0.591751
H    -2.615421  1.881507  -0.859273
N    -2.326682  0.901584  2.138247
C    -1.896076  -0.162173  3.051214
C    -2.521031  -1.504032  2.609788
O    -1.875659  -2.227698  1.800692
H    -3.047472  1.550997  2.442246
H    -0.823140  -0.284801  2.855948
C    -2.045911  0.228555  4.523344
C    -1.406323  -0.752448  5.525286
C    0.111054  -1.015548  5.379381
N    0.444002  -2.189621  4.557338
C    0.935535  -2.193169  3.304542
N    0.898825  -3.412879  2.584966
N    1.330982  -1.179659  2.570647
H    -3.104958  0.369320  4.796349
H    -1.580928  1.219293  4.642664
H    -1.935741  -1.717472  5.521527
H    -1.570861  -0.333718  6.527133
H    0.542786  -1.194004  6.371720
H    0.635491  -0.136460  4.982089
H    0.351206  -3.089664  5.019952
H    0.373853  -4.171436  3.018809
H    1.833410  -3.730240  2.320394
H    1.528655  -0.321952  3.087327
N    -3.723374  -1.833326  3.065733
C    -4.477315  -3.024960  2.674716
H    -4.168217  -1.197770  3.722648
H    -4.742219  -3.605476  3.566063
H    -3.860382  -3.632076  2.008600
H    -5.396885  -2.730469  2.154383
Ca    0.025933  -1.708876  0.705180
