36
Energy: -39737.2338662 eV PBE+vdW (tier 2 basis)
C    -2.265937  -1.174343  0.719429
C    -2.061161  -1.091361  2.201215
O    -1.835408  -2.130139  2.874276
H    -2.516236  -0.216057  0.252734
H    -3.063328  -1.898356  0.507668
H    -1.350102  -1.566974  0.256562
N    -2.131570  0.128925  2.769568
C    -1.966667  0.500180  4.189867
C    -0.524816  0.180896  4.669211
O    -0.196074  -0.997965  4.974056
H    -2.317628  0.899860  2.135473
H    -2.108972  1.588507  4.202232
C    -2.956023  -0.148518  5.177852
C    -4.428494  -0.307874  4.783463
C    -5.102126  -1.472150  5.545186
N    -4.647809  -2.791493  5.079570
C    -3.530699  -3.468184  5.425046
N    -2.795570  -3.085144  6.572600
N    -2.927138  -4.414143  4.744924
H    -2.879928  0.424163  6.114817
H    -2.543767  -1.131383  5.416593
H    -4.532843  -0.498713  3.705052
H    -4.992021  0.612899  4.988076
H    -6.188220  -1.439400  5.396999
H    -4.950917  -1.387664  6.631165
H    -5.046174  -3.083168  4.190441
H    -2.590147  -3.904662  7.147448
H    -3.206591  -2.354081  7.150291
H    -3.457522  -4.759846  3.942258
N    0.322750  1.199144  4.753394
C    1.716904  1.092700  5.185882
H    -0.012198  2.121238  4.488251
H    1.971245  1.972366  5.785699
H    2.385159  1.045243  4.316381
H    1.838911  0.189249  5.788586
Ca    -0.949311  -3.101005  4.640845
