36
Energy: -39736.8120408 eV PBE+vdW (tier 2 basis)
C    -0.416947  1.646073  1.954989
C    -1.420450  0.764010  2.619065
O    -1.507615  0.694587  3.877770
H    -0.126600  1.290679  0.960761
H    0.467051  1.712923  2.599146
H    -0.821647  2.666002  1.860376
N    -2.278060  0.013533  1.874364
C    -2.969267  0.494439  0.689481
C    -3.946835  1.630728  1.132607
O    -4.066455  1.941748  2.353142
H    -2.835012  -0.628731  2.441561
H    -2.234362  0.974973  0.026267
C    -3.597195  -0.685872  -0.106126
C    -4.260327  -1.816823  0.697632
C    -5.657258  -1.536837  1.306458
N    -5.866280  -2.200327  2.592516
C    -5.385950  -1.725792  3.770686
N    -5.237300  -2.589103  4.793815
N    -5.041052  -0.443974  3.921187
H    -2.779132  -1.130862  -0.687549
H    -4.301661  -0.285819  -0.850243
H    -3.585037  -2.164829  1.493946
H    -4.339913  -2.681106  0.024821
H    -6.447372  -1.886365  0.631841
H    -5.842680  -0.458285  1.418912
H    -6.263544  -3.134064  2.575535
H    -5.194056  -2.234334  5.740604
H    -5.387051  -3.584636  4.681796
H    -5.489003  0.076371  3.159706
N    -4.596713  2.283646  0.179226
C    -5.505477  3.409953  0.410726
H    -4.447395  1.996384  -0.784427
H    -5.545347  4.018242  -0.497326
H    -5.133788  4.018431  1.240372
H    -6.516215  3.052824  0.646753
Ca    -3.599574  1.219939  4.449291
