36
Energy: -39735.9505152 eV PBE+vdW (tier 2 basis)
C    -2.777337  -1.855244  1.012399
C    -1.888264  -1.204193  2.011643
O    -0.639003  -1.508399  2.062938
H    -2.502581  -1.491667  0.010026
H    -3.841471  -1.649125  1.207778
H    -2.592702  -2.937065  1.012058
N    -2.405719  -0.300880  2.838769
C    -1.642049  0.544473  3.769451
C    -1.118687  -0.292146  4.958732
O    -0.011390  -0.917630  4.847247
H    -3.390638  0.039978  2.645087
H    -0.732619  0.897788  3.254294
C    -2.473160  1.770268  4.190293
C    -2.963452  2.683296  3.040182
C    -4.448492  2.494001  2.695125
N    -4.706226  1.152110  2.157612
C    -5.843790  0.349872  2.470499
N    -6.790732  0.931893  3.278856
N    -5.783964  -0.860903  2.042191
H    -1.850635  2.353922  4.881517
H    -3.357279  1.443283  4.764360
H    -2.345476  2.545765  2.138909
H    -2.820252  3.730518  3.337373
H    -4.766692  3.277309  1.991090
H    -5.038231  2.621491  3.611716
H    -4.507535  1.071545  1.161815
H    -7.600351  0.360151  3.496952
H    -7.016759  1.912461  3.141304
H    -6.650108  -1.381918  2.194145
N    -1.821401  -0.346250  6.073199
C    -1.456093  -1.099631  7.273759
H    -2.692126  0.179011  6.099011
H    -1.755547  -0.524385  8.155484
H    -0.375053  -1.258048  7.289948
H    -1.971800  -2.068671  7.286205
Ca    1.040520  -1.837385  3.236437
