36
Energy: -39736.0310841 eV PBE+vdW (tier 2 basis)
C    0.109588  -0.105875  0.383152
C    0.192491  0.150158  1.715208
O    1.066145  0.907765  2.331041
H    0.760192  0.436344  -0.299281
H    -0.710716  -0.676147  -0.044560
H    1.099622  -1.995658  0.090860
N    -0.800555  -0.334449  2.687102
C    -2.206377  -0.569918  2.332747
C    -3.043680  0.426463  3.185829
O    -2.462212  1.439362  3.674230
H    -0.412149  -1.069080  3.281491
H    -2.336886  -0.209164  1.298458
C    -2.630785  -2.048044  2.392011
C    -1.978810  -2.964983  1.334119
C    -0.559325  -3.453123  1.666623
N    -0.013052  -4.323181  0.624689
C    1.047425  -4.066996  -0.161557
N    1.576518  -5.071324  -0.879574
N    1.582588  -2.846079  -0.236887
H    -3.715950  -2.118912  2.230524
H    -2.460041  -2.443569  3.407198
H    -1.978085  -2.467959  0.353120
H    -2.622003  -3.849902  1.220994
H    -0.566675  -4.019483  2.610599
H    0.142095  -2.622363  1.796962
H    -0.454780  -5.229475  0.503809
H    2.232716  -4.891501  -1.629634
H    1.361380  -6.040359  -0.679168
H    2.473220  -2.714454  -0.701619
N    -4.348410  0.235841  3.322323
C    -5.266713  1.147850  4.006257
H    -4.752520  -0.598132  2.907632
H    -5.749980  0.629820  4.842964
H    -6.035215  1.492810  3.304380
H    -4.703120  2.004454  4.381406
Ca    -0.271862  1.843875  3.698492
