36
Energy: -39736.6885574 eV PBE+vdW (tier 2 basis)
C    -0.364979  -1.254198  0.266165
C    -0.402744  -0.863545  1.715694
O    0.772528  -0.645093  2.268973
H    0.105242  -0.452683  -0.319703
H    -1.363090  -1.445062  -0.136643
H    0.261906  -2.147291  0.137788
N    -1.556739  -0.782102  2.316595
C    -1.693614  -0.475630  3.750269
C    -1.054011  0.846873  4.199702
O    0.160194  0.947809  4.573346
H    -2.929247  -1.775308  1.773174
H    -2.776292  -0.322383  3.896347
C    -1.317625  -1.655761  4.676441
C    -2.305240  -2.830282  4.555357
C    -2.110498  -3.736497  3.313563
N    -3.362667  -4.221840  2.736602
C    -4.117785  -3.543211  1.855946
N    -5.246854  -4.116510  1.398441
N    -3.770120  -2.323509  1.440060
H    -1.328227  -1.300665  5.716996
H    -0.290832  -1.997836  4.470701
H    -3.328947  -2.426418  4.544099
H    -2.240592  -3.446170  5.461673
H    -1.518843  -4.622736  3.571459
H    -1.558983  -3.217079  2.522876
H    -3.747993  -5.083454  3.107185
H    -5.866647  -3.626396  0.766740
H    -5.461186  -5.088192  1.583470
H    -4.311258  -1.898262  0.696478
N    -1.845223  1.911417  4.209589
C    -1.440209  3.259553  4.602982
H    -2.803496  1.779798  3.898485
H    -2.301794  3.774251  5.038841
H    -1.087958  3.829184  3.732733
H    -0.640910  3.197288  5.346546
Ca    1.946466  0.174775  3.704621
