36
Energy: -39736.8638835 eV PBE+vdW (tier 2 basis)
C    0.275699  2.286175  -0.254756
C    0.263723  1.159486  0.741990
O    1.271233  0.349729  0.771618
H    0.764667  3.169357  0.183194
H    -0.727526  2.585751  -0.580000
H    0.875361  1.990486  -1.121908
N    -0.686779  0.931988  1.655850
C    -1.568361  1.989031  2.126314
C    -0.942713  2.511547  3.448658
O    0.037840  1.893362  3.961598
H    -1.396464  -0.527780  -0.248991
H    -1.611261  2.837554  1.420180
C    -3.009706  1.481704  2.354020
C    -3.637616  0.876570  1.082967
C    -3.543374  -0.658365  1.055583
N    -3.849683  -1.245361  -0.250810
C    -2.950542  -1.466431  -1.218375
N    -3.317529  -2.091225  -2.346135
N    -1.679384  -1.067625  -1.061905
H    -3.631191  2.316683  2.703015
H    -3.011288  0.745129  3.173140
H    -3.149771  1.293721  0.188571
H    -4.694102  1.167330  1.012721
H    -4.245008  -1.097585  1.776524
H    -2.542696  -0.995296  1.358864
H    -4.824342  -1.424114  -0.470558
H    -4.226623  -2.527870  -2.439133
H    -2.699598  -2.145465  -3.146491
H    -0.951720  -1.390480  -1.687268
N    -1.459804  3.597469  4.008481
C    -1.001751  4.204866  5.258679
H    -2.228087  4.056339  3.526481
H    -1.831043  4.250434  5.974249
H    -0.635835  5.220686  5.067154
H    -0.194074  3.597405  5.672413
Ca    1.054893  0.182612  2.965691
