36
Energy: -39735.2736926 eV PBE+vdW (tier 2 basis)
C    -0.403324  -1.223515  0.582792
C    -0.443792  -0.872627  2.028811
O    0.620101  -0.885659  2.735524
H    0.575459  -0.990145  0.152638
H    -1.204063  -0.762919  -0.009204
H    -0.532017  -2.317384  0.514874
N    -1.612182  -0.543599  2.628511
C    -2.537369  0.431295  2.048324
C    -1.786468  1.782153  1.903363
O    -0.640140  1.954904  2.466165
H    -1.555634  -0.512180  3.648437
H    -2.791062  0.109359  1.028580
C    -3.812292  0.560093  2.910858
C    -4.864566  -0.545797  2.726193
C    -5.803471  -0.383538  1.513385
N    -5.185997  -0.609987  0.207892
C    -4.420141  0.272680  -0.514413
N    -4.669093  1.655196  -0.279882
N    -3.474601  -0.002874  -1.348790
H    -4.271682  1.536458  2.705292
H    -3.501878  0.603564  3.968186
H    -5.499261  -0.552618  3.624489
H    -4.385377  -1.537077  2.694035
H    -6.276607  0.608648  1.535334
H    -6.627408  -1.102289  1.609290
H    -5.010857  -1.583871  -0.020099
H    -4.444145  2.148023  -1.146633
H    -5.637166  1.856169  -0.027818
H    -3.352594  -1.011695  -1.476873
N    -2.376027  2.693893  1.174058
C    -1.873086  4.037281  0.903832
H    -3.273531  2.398676  0.705982
H    -2.686195  4.758413  1.044219
H    -1.520530  4.101192  -0.133983
H    -1.053829  4.278314  1.585102
Ca    1.142149  1.135397  3.279060
