36
Energy: -39735.9514724 eV PBE+vdW (tier 2 basis)
C    -0.476373  0.384276  0.129411
C    -0.407366  0.038045  1.580807
O    0.698342  -0.407234  2.066535
H    0.230483  1.198643  -0.082797
H    -1.480077  0.690169  -0.181787
H    -0.149344  -0.481016  -0.462742
N    -1.497354  0.211287  2.311507
C    -1.762869  -0.202832  3.704218
C    -0.840553  0.480989  4.717161
O    0.357237  0.073266  4.904526
H    -2.432216  0.363059  1.784866
H    -2.769630  0.177790  3.891021
C    -1.816710  -1.736950  3.921671
C    -2.665760  -2.518933  2.903961
C    -4.206684  -2.508059  3.034328
N    -4.864262  -1.215930  3.240061
C    -4.693034  -0.112350  2.449086
N    -5.182222  1.073284  2.960891
N    -3.979218  -0.058344  1.350405
H    -2.178952  -1.911062  4.946555
H    -0.796235  -2.149155  3.888411
H    -2.384392  -3.577975  2.994443
H    -2.360099  -2.235754  1.887912
H    -4.490759  -3.116882  3.901972
H    -4.617810  -3.025331  2.151308
H    -5.654697  -1.226195  3.876168
H    -5.392169  1.769739  2.251544
H    -5.868418  1.029953  3.707351
H    -3.831394  -0.994797  0.969961
N    -1.286330  1.492003  5.445464
C    -2.584728  2.170672  5.438872
H    -0.609269  1.837032  6.128220
H    -3.125409  1.995155  4.504576
H    -2.409278  3.247174  5.541680
H    -3.191276  1.830239  6.288052
Ca    1.930325  -0.696287  3.705952
