36
Energy: -39736.3265844 eV PBE+vdW (tier 2 basis)
C    0.514995  0.520750  -0.202443
C    0.185783  1.038726  1.161438
O    1.139095  1.308261  1.992037
H    1.157860  1.240446  -0.727417
H    -0.376910  0.338407  -0.809892
H    1.075469  -0.419565  -0.108290
N    -1.074898  1.204422  1.487162
C    -1.658339  1.670279  2.743563
C    -3.168878  1.324790  2.548176
O    -3.574817  1.151729  1.396635
H    -1.846569  1.007248  0.815898
H    -1.226055  1.090814  3.573742
C    -1.423884  3.190867  2.921422
C    -1.731516  3.790739  4.298574
C    -0.978032  3.162449  5.484796
N    0.444072  2.905489  5.233346
C    1.439646  3.808395  5.092078
N    1.228283  5.068241  5.513803
N    2.583110  3.410323  4.509844
H    -2.020285  3.717240  2.163175
H    -0.371611  3.392065  2.674516
H    -2.806746  3.741229  4.522612
H    -1.497760  4.863158  4.240914
H    -1.400415  2.186924  5.757877
H    -1.105863  3.781437  6.385835
H    0.730930  1.938453  5.161723
H    1.917729  5.791090  5.348856
H    0.471816  5.297255  6.147921
H    3.341535  4.054956  4.750796
N    -3.940898  1.280506  3.646205
C    -5.376675  0.997478  3.591711
H    -3.500751  1.316364  4.558242
H    -5.889957  1.574852  4.367470
H    -5.573082  -0.071791  3.743305
H    -5.753706  1.290324  2.608022
Ca    2.937154  1.953023  2.834210
