36
Energy: -39734.9251487 eV PBE+vdW (tier 2 basis)
C    -0.303847  -0.739313  0.397213
C    -0.462379  -0.218714  1.783200
O    0.440549  0.514411  2.310725
H    -0.219301  0.112179  -0.293314
H    -1.134736  -1.376800  0.078588
H    0.636611  -1.301983  0.323284
N    -1.565044  -0.514049  2.481706
C    -1.851636  0.080588  3.794204
C    -0.873273  -0.454310  4.866000
O    0.029047  0.369133  5.266614
H    -2.294803  -1.061339  2.029176
H    -1.539695  1.133086  3.714503
C    -3.355168  0.180013  4.120256
C    -4.270130  -1.048790  4.124757
C    -5.767641  -0.638848  4.191795
N    -6.141284  0.099796  5.385113
C    -5.799223  1.442109  5.599549
N    -5.899321  2.238795  4.455245
N    -5.394528  1.967526  6.701101
H    -3.753433  0.913901  3.401963
H    -3.419337  0.690463  5.093280
H    -4.057282  -1.696322  4.985888
H    -4.143042  -1.667406  3.217003
H    -6.377507  -1.550942  4.147146
H    -6.023440  -0.049550  3.301946
H    -6.163283  -0.446313  6.240907
H    -5.799703  3.219613  4.708204
H    -6.747276  2.086671  3.912341
H    -5.267754  1.269827  7.439757
N    -0.872374  -1.676376  5.365974
C    -1.648346  -2.866438  5.019049
H    -0.162416  -1.814003  6.088111
H    -0.952209  -3.702868  4.884094
H    -2.206363  -2.714908  4.094924
H    -2.343882  -3.116213  5.828910
Ca    1.350355  1.449899  3.993314
