36
Energy: -39735.7601035 eV PBE+vdW (tier 2 basis)
C    -0.301165  -1.144967  0.150794
C    -0.320488  -0.797163  1.599188
O    0.759494  -0.844732  2.289586
H    -0.776441  -2.139216  0.028834
H    0.727051  -1.182678  -0.217349
H    -0.883875  -0.431060  -0.444237
N    -1.487212  -0.464517  2.150756
C    -1.817142  -0.323065  3.581955
C    -1.109607  0.863856  4.250863
O    0.119584  0.814024  4.583101
H    -2.341553  -0.686988  1.579994
H    -2.886076  -0.069269  3.561448
C    -1.660727  -1.646658  4.387306
C    -2.989305  -2.225257  4.904286
C    -4.047526  -2.568064  3.834072
N    -3.562986  -3.434934  2.769114
C    -3.173742  -3.062597  1.501293
N    -3.703065  -1.821906  1.035513
N    -2.369133  -3.676228  0.708930
H    -0.998583  -1.486452  5.250945
H    -1.168208  -2.385047  3.739473
H    -3.448760  -1.537293  5.632006
H    -2.751709  -3.136524  5.473111
H    -4.453795  -1.653793  3.382984
H    -4.899167  -3.048268  4.336848
H    -3.255428  -4.361177  3.048154
H    -3.615848  -1.823849  0.017497
H    -4.685928  -1.684400  1.275072
H    -1.971771  -4.526349  1.116709
N    -1.840802  1.933683  4.514973
C    -1.363972  3.146515  5.181453
H    -2.812370  1.923397  4.214768
H    -2.151490  3.517486  5.845367
H    -1.127851  3.919554  4.438690
H    -0.470835  2.912885  5.765956
Ca    1.863132  -0.215390  3.926018
