36
Energy: -39737.005945 eV PBE+vdW (tier 2 basis)
C    0.775709  -0.613521  2.833036
C    0.082155  -1.280943  1.691443
O    0.124878  -2.532358  1.541268
H    0.140468  -0.648283  3.731914
H    1.039666  0.428875  2.627075
H    1.681361  -1.185853  3.065259
N    -0.621941  -0.538764  0.788987
C    -1.520714  0.535769  1.177844
C    -2.735531  -0.095824  1.932071
O    -2.828929  -1.351991  2.067739
H    -0.932493  -1.075413  -0.021779
H    -1.003388  1.153968  1.927454
C    -1.861182  1.470899  -0.011844
C    -2.187315  0.867513  -1.389973
C    -3.489583  0.068549  -1.548033
N    -3.440503  -1.283132  -0.986846
C    -2.835059  -2.380752  -1.516985
N    -2.494703  -2.351890  -2.822409
N    -2.560723  -3.401556  -0.703271
H    -0.985625  2.120678  -0.144445
H    -2.678599  2.142520  0.291360
H    -1.340647  0.270685  -1.765512
H    -2.246936  1.721034  -2.081130
H    -3.766260  0.029531  -2.611648
H    -4.327451  0.581311  -1.057499
H    -3.936035  -1.454372  -0.121818
H    -2.938233  -1.711772  -3.470740
H    -1.991801  -3.129191  -3.233099
H    -2.343234  -4.241559  -1.245974
N    -3.626214  0.738847  2.449428
C    -4.794041  0.360158  3.247719
H    -3.465084  1.735579  2.322842
H    -5.701404  0.779749  2.797827
H    -4.688528  0.751076  4.267101
H    -4.868439  -0.728641  3.281870
Ca    -1.953812  -3.350637  1.505151
