27
Energy: -571484.568554 eV PBE+vdW (tier 2 basis)
C    -1.276272  1.351450  0.001337
C    -0.598798  0.978650  1.283065
O    0.676076  0.957802  1.236093
H    -0.940677  2.356275  -0.291636
H    -2.369528  1.339384  0.069177
H    -0.950365  0.662017  -0.789343
N    -1.393071  0.705806  2.340856
C    -1.179414  0.327365  3.762761
C    -0.495573  1.472271  4.541036
O    0.684644  1.818911  4.281347
H    -2.378618  0.789692  2.105387
H    -2.203861  0.248923  4.136906
C    -0.570154  -1.130181  3.961107
C    0.629492  -1.351438  4.879209
O    1.828144  -1.030906  4.562563
N    0.442733  -1.968618  6.033421
H    -0.286016  -1.538769  2.979455
H    -1.392138  -1.770658  4.302862
H    -0.459866  -2.336583  6.317671
H    1.245755  -2.175207  6.628471
N    -1.192452  2.102535  5.485509
C    -2.590594  1.928694  5.898012
H    -0.671264  2.858121  5.933457
H    -3.286320  2.250606  5.112385
H    -2.759890  2.560186  6.774860
H    -2.800352  0.893531  6.193799
Hg    1.850382  0.319140  2.892232
