27
Energy: -571484.039134 eV PBE+vdW (tier 2 basis)
C    -0.217005  1.155092  0.270319
C    -0.181628  0.633470  1.672865
O    0.884748  0.758064  2.335182
H    -0.188305  2.254121  0.303382
H    -1.114520  0.834024  -0.271278
H    0.681262  0.822331  -0.263330
N    -1.309811  0.047152  2.171534
C    -1.346672  -0.319710  3.567436
C    -0.746739  -1.722604  3.847529
O    0.371072  -1.813535  4.448568
H    -2.128051  -0.007586  1.569892
H    -0.601873  0.362892  3.977148
C    -2.532899  0.074543  4.445282
C    -1.977896  0.623714  5.792053
O    -0.763707  0.884432  5.993996
N    -2.877689  0.846522  6.744088
H    -3.235260  -0.743661  4.651747
H    -3.103955  0.884623  3.966137
H    -3.872320  0.703418  6.598023
H    -2.581207  1.243268  7.633712
N    -1.393470  -2.804378  3.455899
C    -0.907473  -4.179052  3.642700
H    -2.311346  -2.685310  3.032831
H    0.186260  -4.182536  3.617901
H    -1.303587  -4.799295  2.833308
H    -1.249439  -4.575081  4.607421
Hg    1.316508  0.254084  4.670656
