27
Energy: -571483.7561 eV PBE+vdW (tier 2 basis)
C    -0.397935  -0.444734  -0.398670
C    0.066928  -0.284666  1.020167
O    1.213578  -0.047030  1.343822
H    0.388664  -0.074870  -1.063407
H    -1.328488  0.104494  -0.595698
H    -0.553302  -1.509428  -0.632486
N    -0.881272  -0.406957  2.071549
C    -2.140752  -1.089101  2.007532
C    -3.362557  -0.109738  1.918509
O    -4.535205  -0.543910  1.690282
H    -0.428173  -0.329863  2.984003
H    -2.197464  -1.626664  1.042107
C    -2.337932  -2.097245  3.184532
C    -2.263099  -3.560266  2.765530
O    -3.082966  -4.068814  1.933804
N    -1.327471  -4.332985  3.289160
H    -3.326331  -1.967415  3.653822
H    -1.608302  -1.883396  3.975089
H    -0.643240  -3.987444  3.955685
H    -1.293975  -5.323984  3.048615
N    -3.124184  1.170690  2.072012
C    -4.121099  2.246391  2.008835
H    -2.148514  1.410027  2.266018
H    -4.494046  2.470378  3.016526
H    -4.954636  1.939750  1.370864
H    -3.639733  3.138411  1.596227
Hg    -4.783213  -2.754515  1.223031
