27
Energy: -571483.370088 eV PBE+vdW (tier 2 basis)
C    0.764545  0.548712  0.871019
C    -0.119341  -0.511337  1.476825
O    0.161129  -1.700486  1.418771
H    1.706327  0.080822  0.570033
H    0.977975  1.359627  1.579763
H    0.293649  0.972046  -0.028098
N    -1.299881  -0.153033  2.123999
C    -1.984975  1.127153  2.066122
C    -2.530620  1.345078  3.496484
O    -3.678444  0.929196  3.865469
H    -1.844475  -0.961238  2.431409
H    -1.240735  1.905879  1.856847
C    -3.044599  1.122857  0.920472
C    -3.711264  2.453277  0.620780
O    -4.660050  2.931882  1.320108
N    -3.275462  3.164957  -0.409225
H    -3.827994  0.380049  1.132895
H    -2.524781  0.764217  0.022738
H    -2.551753  2.827432  -1.035899
H    -3.721409  4.053411  -0.636602
N    -1.719794  1.844566  4.423871
C    -0.295291  2.155386  4.315143
H    -2.123913  1.857956  5.362832
H    0.293937  1.238453  4.170968
H    0.019797  2.627475  5.249955
H    -0.106001  2.857497  3.493776
Hg    -5.628592  1.716652  2.980656
