27
Energy: -571484.106674 eV PBE+vdW (tier 2 basis)
C    -3.744899  -3.799422  0.315094
C    -2.559876  -3.073190  0.868939
O    -1.449241  -3.046437  0.360780
H    -3.937814  -3.431382  -0.701518
H    -4.652089  -3.694647  0.920587
H    -3.493960  -4.864408  0.218474
N    -2.746180  -2.378445  2.088813
C    -1.638798  -1.616900  2.582327
C    -0.791023  -2.361009  3.652100
O    0.362518  -1.925450  4.018086
H    -3.684992  -2.241176  2.454445
H    -0.944759  -1.624201  1.700180
C    -2.025937  -0.170597  3.020056
C    -1.566247  0.925831  2.059717
O    -0.333217  1.141839  1.791235
N    -2.466394  1.712160  1.502469
H    -1.590615  0.085048  4.000593
H    -3.111911  -0.109744  3.160730
H    -3.460915  1.613926  1.683823
H    -2.169597  2.475483  0.893390
N    -1.256855  -3.476877  4.153310
C    -0.567479  -4.346673  5.112979
H    -2.183918  -3.750001  3.821354
H    0.512861  -4.197323  5.033424
H    -0.823086  -5.385426  4.881381
H    -0.895856  -4.111416  6.133583
Hg    1.036278  -0.234565  2.812648
