27
Energy: -571483.9276 eV PBE+vdW (tier 2 basis)
C    0.735243  2.699485  1.068348
C    0.801786  1.541404  2.003429
O    1.976120  1.111915  2.333562
H    1.282046  3.553925  1.489514
H    -0.288730  2.992617  0.812328
H    1.265425  2.420074  0.143683
N    -0.338711  0.978065  2.429140
C    -0.574786  -0.394238  2.958207
C    -2.106816  -0.639784  2.843404
O    -2.832690  -0.348809  3.804980
H    -1.183782  1.466642  2.133795
H    -0.008815  -1.082700  2.312151
C    -0.145633  -0.722887  4.418033
C    -0.250872  0.357564  5.482208
O    0.810290  0.909266  5.985822
N    -1.430330  0.690874  5.935648
H    0.884345  -1.107360  4.434170
H    -0.765501  -1.572446  4.740335
H    -2.251765  0.274499  5.460194
H    -1.538969  1.392047  6.669081
N    -2.548475  -1.131443  1.679089
C    -3.960248  -1.422431  1.415447
H    -1.871027  -1.427882  0.981438
H    -4.172968  -2.483393  1.603067
H    -4.182202  -1.191168  0.368486
H    -4.579660  -0.811055  2.077628
Hg    2.319725  0.987219  4.456809
