27
Energy: -571484.333807 eV PBE+vdW (tier 2 basis)
C    -0.194691  1.609085  -0.444892
C    0.147263  1.266467  0.963711
O    1.389276  1.516565  1.289086
H    -0.021392  2.680889  -0.614349
H    -1.230628  1.351688  -0.689981
H    0.485745  1.065342  -1.116757
N    -0.784833  0.757502  1.756047
C    -0.772158  0.076074  3.057632
C    -2.007408  -0.912226  2.893695
O    -2.845521  -0.608735  2.049540
H    -1.730940  0.572673  1.343522
H    0.140825  -0.527551  3.183137
C    -1.055173  1.013830  4.298829
C    -0.047555  1.038738  5.438796
O    1.228078  1.207120  5.284633
N    -0.480153  0.935237  6.677213
H    -2.042320  0.767247  4.710360
H    -1.150849  2.055332  3.947412
H    -1.465610  0.814133  6.897429
H    0.171542  1.030493  7.457940
N    -2.073293  -1.972359  3.709210
C    -1.040682  -2.492667  4.604935
H    -2.904570  -2.545035  3.566068
H    -1.415230  -3.419643  5.048641
H    -0.822971  -1.805444  5.433792
H    -0.114825  -2.738174  4.066965
Hg    1.764072  1.452418  3.296386
