27
Energy: -571483.901326 eV PBE+vdW (tier 2 basis)
C    0.439654  0.081669  0.111445
C    -0.702860  0.302931  1.060052
O    -1.660080  -0.477373  1.123969
H    0.674544  -0.987900  0.074672
H    1.336780  0.654694  0.373169
H    0.113953  0.377288  -0.897362
N    -0.639689  1.423349  1.857877
C    -1.706330  1.960113  2.696977
C    -1.640371  1.473777  4.160810
O    -2.343124  2.016370  5.083592
H    0.129656  2.061531  1.669038
H    -1.474885  3.032970  2.779962
C    -3.143253  1.911766  2.053767
C    -4.179947  0.906078  2.541373
O    -5.131877  1.249473  3.339797
N    -4.170303  -0.315862  2.069511
H    -3.008682  1.779614  0.972912
H    -3.612057  2.899676  2.161644
H    -3.385641  -0.595422  1.457852
H    -4.880725  -0.989867  2.355810
N    -0.754391  0.552599  4.480354
C    -0.514326  0.032408  5.827791
H    -0.123839  0.264285  3.731621
H    -0.183441  -1.007406  5.743568
H    -1.434263  0.092191  6.415799
H    0.268687  0.620984  6.325081
Hg    -4.478188  2.714062  4.851919
