27
Energy: -571483.948445 eV PBE+vdW (tier 2 basis)
C    -2.046928  -1.925908  -1.295964
C    -1.766604  -2.073121  0.166480
O    -1.982869  -3.230150  0.666332
H    -1.973066  -0.889721  -1.643828
H    -3.058889  -2.304337  -1.500286
H    -1.353456  -2.565792  -1.859888
N    -1.324809  -0.998390  0.842111
C    -1.315715  -0.655267  2.280853
C    -0.038229  -1.067419  3.045608
O    0.605344  -2.164762  2.854754
H    -1.144883  -0.195789  0.242623
H    -1.297675  0.443131  2.275188
C    -2.608474  -1.025655  3.054911
C    -2.925217  0.098676  4.066359
O    -2.076853  0.972511  4.304372
N    -4.124078  0.067230  4.654589
H    -2.522789  -1.966747  3.621848
H    -3.442324  -1.151685  2.350929
H    -4.847479  -0.596569  4.400109
H    -4.362503  0.792949  5.327412
N    0.393612  -0.204443  3.940100
C    1.525593  -0.393278  4.841286
H    -0.191609  0.641324  4.047590
H    1.265103  0.035339  5.815571
H    2.401289  0.142887  4.447934
H    1.766116  -1.455935  4.931220
Hg    -0.641604  -3.887078  2.292781
