27
Energy: -571484.647 eV PBE+vdW (tier 2 basis)
C    -0.675970  0.625532  0.267265
C    -0.364709  -0.093972  1.543793
O    0.739709  -0.688134  1.646674
H    -0.678133  -0.100487  -0.557079
H    0.135493  1.336448  0.059837
H    -1.630517  1.162386  0.286036
N    -1.295936  -0.035548  2.530204
C    -1.243601  -0.511971  3.922256
C    0.123885  -0.241580  4.617202
O    1.038627  -1.115414  4.749727
H    -2.127629  0.500123  2.296210
H    -1.949216  0.148228  4.443253
C    -1.813210  -1.953932  4.207019
C    -1.852502  -2.984746  3.089196
O    -0.819877  -3.460591  2.517728
N    -3.035759  -3.457511  2.725150
H    -2.830657  -1.826316  4.594060
H    -1.239751  -2.408788  5.030885
H    -3.901324  -3.162117  3.165387
H    -3.087444  -4.206813  2.035475
N    0.281632  0.958553  5.152051
C    1.492977  1.402914  5.849049
H    -0.506424  1.602644  5.141677
H    1.408177  1.191471  6.923330
H    1.602302  2.481668  5.700626
H    2.360220  0.872762  5.446006
Hg    1.118730  -2.498320  2.995266
