27
Energy: -571483.763565 eV PBE+vdW (tier 2 basis)
C    0.681585  2.523658  1.048107
C    0.135314  1.678528  2.148992
O    -0.161274  2.137624  3.291929
H    0.053974  3.417150  0.933565
H    0.755470  2.000678  0.088523
H    1.689261  2.870627  1.325191
N    -0.070498  0.363627  1.927358
C    -0.477749  -0.643780  2.906791
C    -2.022361  -0.820475  3.052581
O    -2.469689  -1.353360  4.077524
H    0.134468  0.026091  0.987970
H    -0.162990  -1.596475  2.452040
C    0.301415  -0.595873  4.261862
C    -0.169773  0.195401  5.477576
O    0.533030  1.104525  6.056118
N    -1.256387  -0.201172  6.104584
H    1.336300  -0.302094  4.049926
H    0.363739  -1.639472  4.607938
H    -1.809294  -0.974503  5.698395
H    -1.578191  0.288555  6.940186
N    -2.798211  -0.477642  2.016387
C    -4.239107  -0.726578  1.979374
H    -2.358181  -0.143721  1.163696
H    -4.713341  0.045364  1.364467
H    -4.635325  -0.701906  2.999039
H    -4.450734  -1.713006  1.542267
Hg    1.297553  2.850228  4.926611
