27
Energy: -571483.991082 eV PBE+vdW (tier 2 basis)
C    -0.420637  0.885792  -0.015839
C    0.025798  0.425819  1.333897
O    1.194089  0.768817  1.692436
H    0.438585  1.085865  -0.661434
H    -0.988846  1.819099  0.129978
H    -1.083226  0.145359  -0.485934
N    -0.834543  -0.322492  2.070919
C    -0.975423  -0.296989  3.536423
C    -0.452395  -1.611572  4.169625
O    0.800643  -1.783887  4.364396
H    -1.694555  -0.547513  1.572823
H    -0.300508  0.489912  3.916010
C    -2.387723  0.132951  3.936370
C    -2.636442  1.616401  3.532753
O    -1.810574  2.206893  2.834275
N    -3.773064  2.161940  3.983043
H    -2.507537  0.038600  5.025542
H    -3.162174  -0.488862  3.456777
H    -4.419503  1.674616  4.593435
H    -3.977805  3.131438  3.752829
N    -1.291009  -2.565722  4.512468
C    -0.891120  -3.852545  5.103846
H    -2.286545  -2.387692  4.398801
H    -0.029835  -4.256343  4.561790
H    -1.736112  -4.541557  5.026925
H    -0.623573  -3.714990  6.159136
Hg    2.085495  -0.208297  3.459607
