26
Energy: -18087.58288 eV PBE+vdW (tier 2 basis)
C    1.995656  -0.867779  2.255509
C    0.971660  -0.514306  3.311109
O    1.108491  -0.862318  4.495214
H    2.959437  -0.428573  2.542909
H    1.727189  -0.516807  1.252440
H    2.126054  -1.956738  2.236844
N    -0.100923  0.194796  2.880106
C    -1.108620  0.770933  3.770224
C    -2.166087  -0.256583  4.274878
O    -3.382617  -0.090534  4.111615
H    -0.166268  0.479400  1.900429
H    -0.583657  1.138644  4.667766
C    -1.786185  1.957307  3.066323
C    -2.242089  1.593944  1.653365
O    -1.444195  1.606393  0.708529
N    -3.550600  1.255225  1.527783
H    -1.060978  2.773656  2.966149
H    -2.624025  2.296830  3.684577
H    -4.020017  0.925973  2.371985
H    -3.838617  0.868066  0.635209
N    -1.637421  -1.303723  4.935023
C    -2.462512  -2.362302  5.486609
H    -0.612505  -1.327117  5.026941
H    -1.810514  -3.100294  5.964366
H    -3.049935  -2.857989  4.701216
H    -3.166572  -1.968666  6.232902
