26
Energy: -18087.2129512 eV PBE+vdW (tier 2 basis)
C    0.436306  0.475326  0.120235
C    0.155661  0.001037  1.533280
O    0.962679  0.144376  2.450652
H    0.672028  1.546387  0.145016
H    -0.395390  0.304434  -0.573873
H    1.327254  -0.044979  -0.253246
N    -1.070511  -0.578564  1.724471
C    -1.413565  -1.230653  2.973074
C    -2.473398  -2.294108  2.610074
O    -2.973197  -2.306853  1.479846
H    -1.649959  -0.887847  0.941116
H    -0.508016  -1.716444  3.372610
C    -1.892566  -0.215629  4.051934
C    -3.347332  0.207860  3.890888
O    -4.231506  -0.201217  4.639463
N    -3.594881  1.068776  2.858932
H    -1.209461  0.642690  4.003967
H    -1.801141  -0.651355  5.050920
H    -2.885901  1.238774  2.155288
H    -4.563269  1.246892  2.618393
N    -2.826608  -3.205909  3.548236
C    -2.425534  -3.287145  4.943647
H    -3.593516  -3.799614  3.246301
H    -3.015608  -2.611575  5.580380
H    -1.360455  -3.051315  5.056359
H    -2.570115  -4.317347  5.288039
