26
Energy: -18086.6997833 eV PBE+vdW (tier 2 basis)
C    0.426443  1.571292  0.170753
C    0.374991  0.579518  1.310987
O    1.372794  -0.024926  1.698744
H    -0.301121  2.387031  0.234618
H    0.243448  1.035793  -0.772217
H    1.439149  1.982794  0.133036
N    -0.842637  0.313257  1.909191
C    -2.159475  0.915160  1.714808
C    -2.574763  1.065939  0.228050
O    -3.010036  2.120127  -0.218207
H    -0.762511  -0.407697  2.620914
H    -2.868810  0.172237  2.117629
C    -2.413531  2.211111  2.528373
C    -1.355023  3.318298  2.466785
O    -1.512917  4.355906  1.838323
N    -0.234380  3.096048  3.227838
H    -2.544157  1.917850  3.580692
H    -3.347621  2.657454  2.171828
H    -0.018830  2.183063  3.607383
H    0.523939  3.762733  3.140842
N    -2.483681  -0.053460  -0.555292
C    -2.104747  -1.413161  -0.205491
H    -2.783900  0.121605  -1.508962
H    -2.512882  -2.089949  -0.964753
H    -2.529672  -1.714143  0.761356
H    -1.015310  -1.555865  -0.162717
