26
Energy: -18087.1713432 eV PBE+vdW (tier 2 basis)
C    -1.527383  -1.684677  1.461145
C    -0.464249  -0.633840  1.206694
O    0.699811  -0.922703  0.945822
H    -1.982450  -1.570299  2.455577
H    -1.047842  -2.664907  1.401500
H    -2.333886  -1.623265  0.717766
N    -0.841818  0.691088  1.300553
C    -2.197534  1.215906  1.389882
C    -2.848577  1.415481  -0.009120
O    -3.680990  0.595554  -0.403813
H    -0.114425  1.334658  0.993863
H    -2.823893  0.434859  1.833174
C    -2.265943  2.424023  2.352442
C    -1.146371  3.447089  2.198776
O    -0.664553  3.766548  1.106486
N    -0.712322  4.015038  3.352301
H    -2.274701  2.044298  3.383979
H    -3.219409  2.954745  2.201092
H    0.022545  4.711141  3.302737
H    -1.047907  3.721652  4.259268
N    -2.417610  2.482914  -0.721214
C    -2.864834  2.748426  -2.074240
H    -1.710199  3.084189  -0.284451
H    -2.045572  2.620970  -2.796861
H    -3.253532  3.772128  -2.162406
H    -3.662358  2.037984  -2.315956
