26
Energy: -18087.1496527 eV PBE+vdW (tier 2 basis)
C    -1.165125  1.332886  -1.155018
C    -0.336600  1.282587  0.113166
O    0.744133  1.852851  0.204113
H    -0.952504  2.280288  -1.658709
H    -2.244148  1.232130  -0.998268
H    -0.847298  0.517421  -1.820149
N    -0.792968  0.502471  1.166456
C    -2.137426  -0.029471  1.394861
C    -2.530717  -1.118045  0.362603
O    -3.705140  -1.309658  0.034017
H    -0.207973  0.612593  1.991112
H    -2.059669  -0.571710  2.351457
C    -3.239978  1.047272  1.566264
C    -4.270964  0.677551  2.640263
O    -4.224477  1.165611  3.766677
N    -5.215328  -0.216631  2.240499
H    -3.740735  1.236287  0.607759
H    -2.766047  1.972420  1.908807
H    -5.078099  -0.719630  1.363321
H    -5.858526  -0.570929  2.938235
N    -1.495255  -1.859356  -0.095360
C    -1.652219  -2.946952  -1.041434
H    -0.565767  -1.568360  0.191141
H    -1.198074  -3.868183  -0.653550
H    -1.189589  -2.704052  -2.008693
H    -2.723906  -3.110200  -1.193177
