26
Energy: -18086.9149828 eV PBE+vdW (tier 2 basis)
C    0.952186  0.570158  1.323807
C    0.184254  -0.092959  2.450809
O    0.684674  -0.303612  3.552648
H    1.328004  1.538852  1.674943
H    0.360015  0.722333  0.412781
H    1.825629  -0.048199  1.081318
N    -1.110311  -0.439931  2.151630
C    -1.972947  -1.141673  3.096419
C    -2.539652  -2.394385  2.400218
O    -3.685723  -2.423610  1.961892
H    -1.460526  -0.296927  1.210356
H    -1.302027  -1.432190  3.917186
C    -3.080206  -0.274481  3.725366
C    -4.124140  0.388094  2.824726
O    -5.323691  0.256676  3.005125
N    -3.624406  1.183742  1.809293
H    -2.577880  0.515916  4.306224
H    -3.646000  -0.890214  4.433645
H    -2.688814  1.564770  1.889824
H    -4.311516  1.761621  1.336238
N    -1.696856  -3.465670  2.280738
C    -0.279350  -3.553591  2.590427
H    -2.110284  -4.227539  1.750454
H    0.354203  -3.206024  1.758619
H    -0.025024  -4.597545  2.807992
H    -0.026612  -2.956612  3.473322
