26
Energy: -18086.8377875 eV PBE+vdW (tier 2 basis)
C    0.360881  0.956349  1.682282
C    -0.510115  0.132170  2.608926
O    -0.043449  -0.417789  3.603430
H    0.294304  2.019168  1.959736
H    0.092726  0.832654  0.628345
H    1.395824  0.638799  1.838608
N    -1.866628  0.031316  2.365657
C    -2.726320  0.478286  1.280888
C    -2.497063  -0.276922  -0.048435
O    -1.393266  -0.680667  -0.402254
H    -2.316188  -0.546187  3.069392
H    -3.744870  0.263260  1.631391
C    -2.701452  2.003327  1.041699
C    -3.362907  2.717456  2.218512
O    -4.492936  2.417458  2.591372
N    -2.632093  3.709089  2.799739
H    -3.299800  2.238114  0.149293
H    -1.683642  2.356006  0.841509
H    -1.663597  3.869755  2.558712
H    -3.012018  4.172119  3.617293
N    -3.601431  -0.428548  -0.842451
C    -4.998931  -0.190734  -0.505739
H    -3.402701  -0.936909  -1.699139
H    -5.586292  -0.217033  -1.430109
H    -5.149238  0.795183  -0.048609
H    -5.404231  -0.953635  0.177532
