26
Energy: -18086.7036097 eV PBE+vdW (tier 2 basis)
C    -0.166822  2.292963  0.949376
C    0.422708  0.900946  0.942507
O    1.447315  0.630403  0.322046
H    -1.089655  2.306631  0.352776
H    0.563310  2.968136  0.495560
H    -0.402280  2.644114  1.963763
N    -0.233369  -0.104895  1.626995
C    -1.287911  -0.060642  2.633890
C    -1.603232  -1.467969  3.188722
O    -1.924301  -1.571066  4.372602
H    0.324336  -0.954812  1.622592
H    -0.941057  0.476761  3.532113
C    -2.625308  0.630870  2.242427
C    -3.324098  0.055975  1.019343
O    -2.985444  0.340212  -0.125583
N    -4.341374  -0.817917  1.286375
H    -2.444039  1.690637  2.038721
H    -3.260992  0.574434  3.136617
H    -4.631377  -1.037662  2.229931
H    -4.849698  -1.221810  0.508778
N    -1.505077  -2.574947  2.390528
C    -1.515333  -2.729356  0.937841
H    -1.700510  -3.416816  2.927537
H    -0.665521  -3.344290  0.610041
H    -2.446817  -3.216366  0.616617
H    -1.453569  -1.760833  0.437743
