26
Energy: -18087.2893228 eV PBE+vdW (tier 2 basis)
C    0.394171  0.060146  0.503925
C    0.032288  -0.262601  1.938646
O    0.861023  -0.228297  2.849418
H    -0.470089  0.078943  -0.170293
H    1.114267  -0.685545  0.142435
H    0.894534  1.035479  0.480006
N    -1.271895  -0.640371  2.137955
C    -1.834078  -0.725482  3.478940
C    -2.410197  -2.119328  3.828905
O    -3.563983  -2.243569  4.257747
H    -1.947343  -0.399360  1.410336
H    -0.993921  -0.526020  4.165170
C    -2.909723  0.361305  3.681603
C    -3.987822  0.309469  2.600650
O    -3.748621  0.652427  1.437570
N    -5.214546  -0.116990  3.008287
H    -2.419426  1.339845  3.600845
H    -3.339803  0.264171  4.683939
H    -5.235726  -0.735782  3.814868
H    -5.893180  -0.291159  2.273717
N    -1.605499  -3.203909  3.685555
C    -0.210810  -3.284222  3.278953
H    -2.080358  -4.070908  3.919016
H    -0.106842  -3.437335  2.194182
H    0.257640  -4.128917  3.798102
H    0.335938  -2.373992  3.549523
