26
Energy: -18087.0355988 eV PBE+vdW (tier 2 basis)
C    -0.207196  -0.296273  1.081425
C    -1.134745  0.895115  1.237664
O    -0.916396  1.795116  2.040172
H    0.625790  -0.161123  1.775772
H    0.193015  -0.379294  0.061063
H    -0.720584  -1.237525  1.321315
N    -2.245940  0.945222  0.421904
C    -2.724098  -0.069131  -0.510128
C    -3.287490  0.648114  -1.756873
O    -4.498331  0.710165  -1.998634
H    -2.891169  1.694127  0.665181
H    -1.845484  -0.639964  -0.842110
C    -3.714412  -1.081780  0.108148
C    -4.714065  -0.511412  1.123718
O    -4.730362  -0.904069  2.286061
N    -5.546948  0.450706  0.640744
H    -3.145458  -1.837441  0.660567
H    -4.258276  -1.590152  -0.701537
H    -6.261949  0.817087  1.257139
H    -5.541268  0.672209  -0.356191
N    -2.382100  1.229339  -2.588050
C    -0.933701  1.277336  -2.460366
H    -2.810419  1.726390  -3.362867
H    -0.525478  1.746153  -3.361338
H    -0.499600  0.269957  -2.388228
H    -0.615157  1.862826  -1.587259
