26
Energy: -18087.2914178 eV PBE+vdW (tier 2 basis)
C    0.468578  -0.114604  0.453929
C    0.106093  -0.511303  1.870769
O    0.959912  -0.667096  2.746735
H    -0.403767  0.053693  -0.188428
H    1.091040  -0.903764  0.012614
H    1.075971  0.797799  0.489178
N    -1.227839  -0.722525  2.089763
C    -1.762380  -0.904693  3.431204
C    -2.550443  -2.226685  3.582005
O    -3.738550  -2.219731  3.917031
H    -1.915657  -0.375589  1.416478
H    -0.887973  -0.930967  4.101196
C    -2.661939  0.277442  3.829326
C    -3.832814  0.477068  2.870812
O    -3.675921  0.528487  1.646722
N    -5.048407  0.683939  3.450678
H    -2.053619  1.193314  3.796103
H    -3.011077  0.144076  4.859688
H    -5.211643  0.313962  4.379164
H    -5.844692  0.702178  2.821848
N    -1.889430  -3.393149  3.355694
C    -0.505919  -3.611323  2.964900
H    -2.493804  -4.205681  3.434488
H    -0.392657  -3.680735  1.872062
H    -0.153134  -4.547773  3.413953
H    0.139512  -2.800147  3.319876
