26
Energy: -18086.7293406 eV PBE+vdW (tier 2 basis)
C    -0.076570  0.168892  -0.026249
C    -0.082845  -0.425001  1.371534
O    0.810304  -1.157520  1.779373
H    0.889429  0.658837  -0.195587
H    -0.882351  0.891062  -0.208375
H    -0.161140  -0.648887  -0.753507
N    -1.159808  -0.065335  2.152084
C    -1.437703  -0.704268  3.442791
C    -2.891073  -0.427177  3.865642
O    -3.654546  -1.354069  4.111959
H    -1.943383  0.370259  1.678587
H    -1.381460  -1.795389  3.325603
C    -0.407163  -0.316814  4.535762
C    -0.651854  -1.106536  5.820057
O    -0.290687  -2.266698  5.953910
N    -1.297577  -0.419493  6.818118
H    -0.409820  0.765486  4.718279
H    0.581176  -0.602867  4.159062
H    -1.740867  0.472543  6.643574
H    -1.608342  -0.952561  7.622465
N    -3.332101  0.875675  3.946940
C    -2.601451  2.134026  3.907564
H    -4.301789  0.917662  4.250167
H    -2.325428  2.493450  4.913015
H    -3.225446  2.903124  3.434315
H    -1.686580  2.034277  3.316448
