26
Energy: -18087.3873141 eV PBE+vdW (tier 2 basis)
C    0.006854  0.700856  0.034272
C    -0.001785  0.380737  1.513068
O    1.051423  0.320047  2.166622
H    -0.992433  0.712250  -0.415929
H    0.626684  -0.042292  -0.482534
H    0.479976  1.679699  -0.113181
N    -1.218669  0.173368  2.067162
C    -1.417930  -0.200249  3.452029
C    -2.856714  -0.746271  3.527807
O    -3.657043  -0.533585  2.611914
H    -2.081167  0.188011  1.520449
H    -0.703933  -1.000673  3.700879
C    -1.216927  0.983448  4.456374
C    -0.136506  0.761073  5.522188
O    -0.388661  0.861695  6.723136
N    1.087964  0.450205  5.029359
H    -2.144959  1.210207  4.992177
H    -0.955817  1.875086  3.870326
H    1.252425  0.387482  4.016236
H    1.843788  0.308637  5.687948
N    -3.202774  -1.447494  4.635579
C    -2.388345  -1.776132  5.798964
H    -4.181636  -1.716823  4.648029
H    -2.328610  -0.952466  6.523714
H    -1.366487  -2.039982  5.499692
H    -2.824717  -2.652833  6.289720
