26
Energy: -18087.0083121 eV PBE+vdW (tier 2 basis)
C    -0.350870  -0.588289  0.001013
C    -0.147750  -0.121683  1.429292
O    0.953868  -0.130244  1.968740
H    0.616907  -0.561867  -0.506899
H    -1.074144  0.020678  -0.558537
H    -0.712692  -1.626664  0.006496
N    -1.256799  0.306939  2.123055
C    -2.642781  0.343416  1.698487
C    -3.413918  1.157115  2.744976
O    -3.143975  1.064389  3.948922
H    -1.092788  0.520703  3.105262
H    -2.710388  0.853442  0.726941
C    -3.321578  -1.054849  1.525637
C    -2.849173  -2.164135  2.475538
O    -2.481192  -3.244160  2.023460
N    -2.918465  -1.895449  3.808266
H    -3.124272  -1.432806  0.517525
H    -4.413980  -0.949813  1.622362
H    -3.029628  -0.939760  4.149762
H    -2.516590  -2.586941  4.431074
N    -4.435862  1.935361  2.308048
C    -4.866150  2.172500  0.937476
H    -4.937768  2.402682  3.056959
H    -5.725375  2.850202  0.962419
H    -5.185066  1.247569  0.436874
H    -4.080169  2.650377  0.335844
