26
Energy: -18086.9783182 eV PBE+vdW (tier 2 basis)
C    0.049132  0.749481  2.496766
C    0.193670  -0.028995  1.205154
O    1.241566  -0.573627  0.868900
H    1.034931  0.818579  2.963051
H    -0.639652  0.247328  3.191111
H    -0.345978  1.760013  2.324524
N    -0.918092  -0.106155  0.394136
C    -2.271725  0.330116  0.698378
C    -2.963142  -0.432812  1.851086
O    -3.700245  0.196727  2.623383
H    -0.760362  -0.639276  -0.456589
H    -2.234989  1.367683  1.061678
C    -3.113662  0.303290  -0.594821
C    -4.407501  1.130353  -0.689693
O    -4.914474  1.303484  -1.793918
N    -4.911971  1.650333  0.459286
H    -3.385619  -0.728962  -0.864412
H    -2.484659  0.678245  -1.414262
H    -4.585055  1.349009  1.382599
H    -5.795969  2.140352  0.383048
N    -2.776690  -1.767991  2.012802
C    -2.051849  -2.736630  1.197712
H    -3.293228  -2.128270  2.809824
H    -2.376374  -3.737402  1.502460
H    -0.964156  -2.670054  1.330099
H    -2.286622  -2.629515  0.131325
