26
Energy: -18086.8961337 eV PBE+vdW (tier 2 basis)
C    0.443611  0.929802  1.233104
C    -0.359547  0.486552  2.441355
O    0.161727  0.360492  3.546492
H    1.321127  1.475445  1.591186
H    -0.112080  1.552107  0.520665
H    0.781898  0.035592  0.691372
N    -1.691171  0.187733  2.268800
C    -2.549256  0.371067  1.108713
C    -1.987828  -0.357900  -0.142096
O    -1.464148  -1.459923  -0.034558
H    -2.124877  -0.174810  3.111985
H    -3.473073  -0.182705  1.338057
C    -2.973136  1.849527  0.936131
C    -3.673188  2.318302  2.212909
O    -4.767997  1.873230  2.537647
N    -3.002518  3.252613  2.948277
H    -3.723814  1.943885  0.138025
H    -2.111546  2.484821  0.686408
H    -3.376025  3.481915  3.862892
H    -2.022836  3.443067  2.781654
N    -2.155346  0.278746  -1.337029
C    -1.754520  -0.319554  -2.597595
H    -2.589139  1.192260  -1.351609
H    -2.617777  -0.461707  -3.262277
H    -1.312358  -1.295527  -2.372676
H    -1.007992  0.302178  -3.110736
