25
Energy: -104335.478357 eV PBE+vdW (tier 2 basis)
N    -0.920712  1.264151  1.307127
C    -0.320269  0.254453  2.244802
C    1.222669  0.382788  2.091139
O    1.662799  0.864302  1.070771
H    -0.170979  1.345580  0.581907
H    -0.843134  2.174676  1.779452
H    -0.647318  0.494074  3.266336
C    -0.722285  -1.192991  1.863298
C    -2.189401  -1.359301  1.544815
C    -2.599865  -1.829362  0.277074
C    -3.204901  -1.034040  2.470079
C    -3.952113  -1.947242  -0.067915
C    -4.564192  -1.146358  2.147309
C    -4.957953  -1.636885  0.878095
O    -6.225778  -1.816146  0.494513
H    -0.438177  -1.868023  2.684465
H    -0.131472  -1.510299  0.992440
H    -1.845928  -2.122142  -0.456970
H    -2.940713  -0.694221  3.473271
H    -4.250047  -2.344168  -1.039310
H    -5.318712  -0.913158  2.901418
H    -6.861876  -1.717160  1.227294
O    2.016726  -0.098744  3.045501
H    1.537528  -0.397017  3.840420
Sr    -3.268899  0.921232  0.330673
