25
Energy: -104334.950611 eV PBE+vdW (tier 2 basis)
N    -0.875867  0.777933  -0.198726
C    -0.499354  0.395736  1.160474
C    0.982308  0.233509  0.894329
O    1.842341  1.134671  1.020026
H    -1.351939  1.672815  -0.269358
H    -1.353331  0.043539  -0.718162
H    -0.597859  1.256236  1.834488
C    -1.225208  -0.825759  1.768205
C    -1.154123  -2.080643  0.928321
C    -0.178793  -3.074084  1.182531
C    -2.042704  -2.305113  -0.139123
C    -0.068520  -4.214057  0.382842
C    -1.945363  -3.438055  -0.939703
C    -0.945344  -4.397363  -0.697144
O    -0.787266  -5.516675  -1.429259
H    -2.271125  -0.517104  1.907354
H    -0.820971  -1.009285  2.774675
H    0.436590  -3.006854  2.084227
H    -2.862370  -1.607058  -0.319475
H    0.653830  -4.995749  0.613913
H    -2.665615  -3.594060  -1.744448
H    -1.484096  -5.601116  -2.102999
O    1.467014  -0.920823  0.353066
H    0.788457  -1.706907  0.426455
Sr    3.678323  0.212888  -0.059941
