25
Energy: -104336.267457 eV PBE+vdW (tier 2 basis)
N    -0.519658  -0.412237  -0.191698
C    -0.057096  -0.263933  1.238919
C    1.471182  -0.208290  1.229955
O    2.088034  -0.104384  0.108596
H    -1.361279  0.138328  -0.398336
H    0.246627  -0.140270  -0.830348
H    -0.398957  0.714496  1.608925
C    -0.659277  -1.404430  2.103776
C    -0.537411  -2.747511  1.431027
C    0.598918  -3.555966  1.594532
C    -1.564819  -3.216945  0.585709
C    0.713099  -4.779407  0.941769
C    -1.458371  -4.431896  -0.083759
C    -0.313058  -5.224642  0.088873
O    -0.278509  -6.396866  -0.574635
H    -1.713129  -1.158887  2.295327
H    -0.149759  -1.375898  3.075048
H    1.384090  -3.250265  2.288955
H    -2.501962  -2.658630  0.504134
H    1.585937  -5.410968  1.114789
H    -2.266631  -4.802206  -0.712414
H    0.514691  -6.910642  -0.345882
O    2.094446  -0.215165  2.337021
H    -0.738742  -1.431267  -0.336708
Sr    4.166395  0.087134  1.277628
