25
Energy: -104336.69079 eV PBE+vdW (tier 2 basis)
N    1.035074  -0.396456  0.319954
C    0.239155  0.016359  1.506870
C    1.231592  0.378296  2.611547
O    2.322294  -0.202273  2.686491
H    1.474793  0.434149  -0.091935
H    0.392748  -0.732702  -0.404400
H    -0.413639  0.876893  1.287713
C    -0.666482  -1.169020  1.987432
C    0.079378  -2.474796  2.150174
C    0.728345  -2.814116  3.354914
C    0.192450  -3.386858  1.076547
C    1.491318  -3.981803  3.479344
C    0.952205  -4.554855  1.176731
C    1.595231  -4.881183  2.394004
O    2.272743  -6.035279  2.428322
H    -1.468538  -1.282579  1.244567
H    -1.158753  -0.879348  2.925637
H    0.643755  -2.159510  4.223486
H    -0.340526  -3.195755  0.143428
H    1.957218  -4.221272  4.436997
H    1.001025  -5.265433  0.351259
H    2.576507  -6.264690  3.325973
O    0.912969  1.252998  3.537920
H    0.062580  1.707450  3.374114
Sr    2.807557  -2.135216  1.356910
