25
Energy: -104336.303605 eV PBE+vdW (tier 2 basis)
N    0.470034  0.061824  0.296029
C    0.030162  -0.084601  1.734239
C    1.215038  -0.640774  2.525634
O    2.361255  -0.732594  1.954758
H    0.099737  0.908719  -0.150870
H    1.503096  0.058653  0.251219
H    -0.173205  0.919552  2.135350
C    -1.249177  -0.961828  1.795326
C    -1.106748  -2.211115  0.964161
C    -0.502954  -3.372359  1.481709
C    -1.542685  -2.236819  -0.373790
C    -0.330238  -4.504466  0.699330
C    -1.370489  -3.366885  -1.174502
C    -0.755506  -4.509442  -0.642660
O    -0.554213  -5.647463  -1.335352
H    -2.093479  -0.351395  1.445817
H    -1.439275  -1.183218  2.853121
H    -0.219980  -3.407194  2.535881
H    -2.091450  -1.385469  -0.786111
H    0.098825  -5.417598  1.109736
H    -1.743230  -3.368605  -2.199543
H    -0.928831  -5.586904  -2.231063
O    1.045627  -0.964419  3.742154
H    0.107890  -0.781040  -0.218000
Sr    3.305651  -1.543540  3.997952
