25
Energy: -104336.07997 eV PBE+vdW (tier 2 basis)
N    -1.020245  -0.243462  0.141630
C    -0.904218  -0.201273  1.565894
C    -0.069822  0.926347  2.188087
O    -0.097491  1.186669  3.416396
H    -1.486456  0.565642  -0.263088
H    -0.143585  -0.409062  -0.350304
H    -1.915167  -0.055495  1.987338
C    -0.360885  -1.574423  2.086058
C    -0.494596  -1.857419  3.561876
C    -1.758631  -2.057478  4.160421
C    0.637349  -2.013861  4.392692
C    -1.895406  -2.403385  5.513065
C    0.524788  -2.358190  5.746550
C    -0.746947  -2.598542  6.317307
O    -0.775130  -2.973766  7.603924
H    0.688242  -1.687117  1.778244
H    -0.933186  -2.322140  1.518618
H    -2.663230  -1.976370  3.554227
H    1.635851  -1.893965  3.968474
H    -2.890005  -2.591690  5.922778
H    1.413471  -2.521584  6.357705
H    -1.658408  -3.272831  7.888977
O    0.677957  1.598959  1.354299
H    1.182630  2.306834  1.810902
Sr    -0.655883  0.308601  5.490929
