25
Energy: -104335.44218 eV PBE+vdW (tier 2 basis)
N    -1.271724  -1.385313  -0.032244
C    -0.900927  -0.608773  1.146140
C    0.524358  -0.140428  0.825110
O    1.490959  -0.986792  0.849486
H    -2.272676  -1.376603  -0.217011
H    -0.937658  -2.347783  0.003018
H    -1.529894  0.290136  1.156357
C    -1.031873  -1.403154  2.459319
C    -0.750860  -0.598053  3.796765
C    -1.716744  0.503843  4.016614
C    -0.657492  -1.558874  4.918394
C    -2.503588  0.580004  5.118875
C    -1.450060  -1.488749  6.020342
C    -2.392218  -0.422611  6.131891
O    -3.197754  -0.288746  7.158440
H    -0.333346  -2.251338  2.431493
H    -2.049439  -1.812828  2.512599
H    -1.796240  1.280143  3.254459
H    0.068607  -2.368847  4.829372
H    -3.221989  1.385182  5.268824
H    -1.372682  -2.228147  6.819292
H    -3.084810  -0.991561  7.830467
O    0.712927  1.054155  0.402960
H    0.256224  -0.149977  3.658265
Sr    2.699245  0.394688  -0.600686
