25
Energy: -104335.307945 eV PBE+vdW (tier 2 basis)
N    -0.039402  0.161475  -0.006303
C    -0.024854  0.018532  1.437564
C    1.231479  0.757944  1.901142
O    2.395159  0.355375  1.518359
H    -0.946711  -0.007375  -0.433022
H    0.701603  -0.332299  -0.496597
H    -0.865126  0.607323  1.832078
C    -0.178856  -1.388195  2.079317
C    0.799542  -2.527502  1.573391
C    1.134338  -3.437274  2.692505
C    0.271605  -3.219021  0.373703
C    0.926839  -4.778366  2.650703
C    0.056346  -4.558790  0.328740
C    0.376740  -5.358902  1.469575
O    0.196687  -6.657633  1.497539
H    -1.210875  -1.729229  1.923612
H    -0.057605  -1.286290  3.167936
H    1.553416  -2.989678  3.595219
H    0.031903  -2.613469  -0.500354
H    1.164168  -5.433796  3.487800
H    -0.351082  -5.034618  -0.564945
H    -0.182869  -7.011867  0.667675
O    1.114250  1.821079  2.601801
H    1.736076  -2.000453  1.280973
Sr    3.300228  2.432029  2.173590
