25
Energy: -104334.693399 eV PBE+vdW (tier 2 basis)
N    -0.008411  -0.608405  -0.007684
C    -0.137685  -0.210532  1.386653
C    1.213845  0.108355  2.036977
O    1.543884  -0.265677  3.144841
H    0.877505  -0.301820  -0.407776
H    -0.751870  -0.215402  -0.583893
H    -0.733166  0.714264  1.502379
C    -0.896193  -1.301587  2.215551
C    -0.170752  -2.614452  2.174354
C    0.691124  -3.020387  3.224353
C    -0.195467  -3.421809  1.008882
C    1.480313  -4.175718  3.130142
C    0.600068  -4.579936  0.893839
C    1.488168  -4.940782  1.934531
O    2.312045  -5.996999  1.900275
H    -1.896943  -1.387705  1.769302
H    -1.010179  -0.943971  3.245972
H    0.765962  -2.398402  4.117193
H    -0.833931  -3.133266  0.174225
H    2.162264  -4.453488  3.935383
H    0.578774  -5.157729  -0.032942
H    2.383555  -6.389770  1.010177
O    1.968497  0.874596  1.234108
H    2.797757  1.100340  1.704023
Sr    -1.205336  -5.066818  3.067346
