25
Energy: -104334.573025 eV PBE+vdW (tier 2 basis)
N    -0.067357  -0.855752  -0.034280
C    -0.122236  -0.407965  1.340503
C    1.221478  -0.128109  2.065158
O    1.358160  -0.217364  3.263387
H    0.039795  -0.083702  -0.689993
H    0.702195  -1.505116  -0.201482
H    -0.658072  0.556001  1.362044
C    -0.924139  -1.422062  2.214614
C    -2.343455  -1.479598  1.742345
C    -3.359682  -0.704563  2.352299
C    -2.698931  -2.206949  0.576077
C    -4.670277  -0.667556  1.853812
C    -4.007278  -2.171579  0.053469
C    -4.998127  -1.364034  0.660685
O    -6.256204  -1.238647  0.218219
H    -0.846905  -1.106212  3.262646
H    -0.430770  -2.401939  2.124961
H    -3.118186  -0.106489  3.234172
H    -1.938590  -2.797572  0.065325
H    -5.431840  -0.042817  2.323032
H    -4.235767  -2.720133  -0.863200
H    -6.380785  -1.609905  -0.675349
O    2.171608  0.245490  1.192133
H    2.984504  0.456108  1.696980
Sr    -4.198879  -3.357347  2.666715
