25
Energy: -104334.344365 eV PBE+vdW (tier 2 basis)
N    -0.134656  0.455320  -0.009653
C    0.477160  -0.006012  1.195684
C    1.981282  -0.351960  1.161354
O    2.530805  -0.979070  2.051777
H    0.166062  -0.029598  -0.852072
H    -0.071751  1.459073  -0.152650
H    0.399297  0.797962  1.946409
C    -0.316020  -1.254432  1.751522
C    0.167561  -1.774341  3.069481
C    0.900153  -2.978993  3.168989
C    -0.085033  -1.065039  4.266606
C    1.397702  -3.439433  4.392991
C    0.396599  -1.509783  5.504261
C    1.156943  -2.690828  5.558359
O    1.286439  -3.403890  6.767641
H    -0.284243  -2.045511  0.990443
H    -1.356559  -0.915330  1.828008
H    1.120051  -3.546860  2.265262
H    -0.652343  -0.133913  4.231063
H    1.995359  -4.351934  4.451914
H    0.191981  -0.938463  6.413311
H    1.662902  -2.870309  7.493210
O    2.597929  0.127168  0.078360
H    3.551159  -0.092047  0.137171
Sr    -0.985377  -4.017659  5.754118
