25
Energy: -104336.045511 eV PBE+vdW (tier 2 basis)
N    -0.485026  -0.004430  0.014638
C    0.177508  -0.257299  1.261640
C    1.686765  -0.301085  1.095524
O    2.459909  -0.427601  2.076899
H    -0.204332  0.863270  -0.439030
H    -1.499467  -0.014178  0.102234
H    0.022258  0.504791  2.062645
C    -0.327061  -1.633222  1.814922
C    0.115530  -2.030438  3.200606
C    -0.320910  -1.333683  4.349198
C    0.925778  -3.168471  3.412040
C    0.023578  -1.746667  5.645415
C    1.280445  -3.600272  4.696682
C    0.799068  -2.914887  5.837059
O    1.138093  -3.414022  7.033892
H    -0.067403  -2.411871  1.086494
H    -1.425169  -1.563087  1.808860
H    -0.973187  -0.465010  4.241485
H    1.266918  -3.750849  2.554270
H    -0.370675  -1.203099  6.506556
H    1.865673  -4.509693  4.839418
H    0.652846  -2.993618  7.767821
O    2.130220  -0.190634  -0.125923
H    3.111556  -0.213837  -0.154783
Sr    2.584449  -1.001652  4.317539
