25
Energy: -104335.779913 eV PBE+vdW (tier 2 basis)
N    2.021805  -0.802399  0.385036
C    0.804639  -0.339692  1.027295
C    0.755025  1.160065  1.329377
O    1.838924  1.843809  1.369137
H    2.006839  -0.710714  -0.629111
H    2.856219  -0.332748  0.740714
H    -0.047030  -0.542289  0.361773
C    0.602705  -1.135310  2.352270
C    0.866885  -2.642173  2.075824
C    1.573454  -3.373393  3.128367
C    -0.220781  -3.384372  1.427752
C    1.321292  -4.684735  3.407668
C    -0.479193  -4.691684  1.704870
C    0.294325  -5.363469  2.694531
O    -0.007012  -6.629710  2.901909
H    -0.397081  -0.966071  2.768662
H    1.337451  -0.791752  3.094960
H    2.359062  -2.852194  3.678160
H    -0.822614  -2.875865  0.672799
H    1.891385  -5.214227  4.172555
H    -1.269569  -5.246484  1.201080
H    0.550537  -7.042841  3.590348
O    -0.380577  1.714073  1.546683
H    1.660601  -2.484836  1.238753
Sr    0.617707  3.811012  1.735586
