17
Energy: -13404.5983506 eV PBE+vdW (tier 2 basis)
N    -0.390743  1.072314  0.989730
C    0.093759  -0.220681  1.462329
C    1.636668  -0.224916  1.640550
O    2.313148  0.735621  1.329903
H    0.404533  1.561875  0.566449
H    -0.666234  1.647609  1.784452
H    -0.351341  -0.439927  2.445514
C    -0.364278  -1.339758  0.483776
C    -0.511646  -2.705213  1.126687
O    0.203011  -3.088839  2.066183
N    -1.479790  -3.504998  0.620190
H    0.349077  -1.433460  -0.351519
H    -1.315695  -1.010566  0.046148
H    -2.081873  -3.204930  -0.134103
H    -1.583892  -4.442099  0.991634
O    2.173990  -1.342411  2.138514
H    1.458306  -2.046620  2.245561
