17
Energy: -13404.3915143 eV PBE+vdW (tier 2 basis)
N    1.455556  -0.364759  1.623935
C    0.064279  -0.032188  1.352639
C    -0.245926  1.433555  1.627341
O    -1.125571  2.066295  1.081643
H    1.608750  -1.342841  1.376847
H    1.683272  -0.239825  2.610393
H    -0.108527  -0.175299  0.277246
C    -1.002168  -0.869848  2.102669
C    -0.945227  -2.347385  1.713322
O    -0.232431  -2.778077  0.812328
N    -1.751107  -3.165474  2.453846
H    -2.009391  -0.487589  1.868383
H    -0.864359  -0.768333  3.191224
H    -2.397439  -2.805707  3.143338
H    -1.806356  -4.144014  2.198148
O    0.533934  1.957916  2.612923
H    0.235711  2.881571  2.723773
