17
Energy: -13404.4640621 eV PBE+vdW (tier 2 basis)
N    -0.186628  0.725700  -0.052660
C    -0.405806  0.326837  1.331889
C    0.832697  0.100479  2.218341
O    0.822074  -0.489755  3.279743
H    0.343212  1.595601  -0.089619
H    0.384420  0.010711  -0.508173
H    -0.942998  1.151205  1.833562
C    -1.317873  -0.902648  1.410007
C    -0.655274  -2.150805  0.831219
O    0.468940  -2.139314  0.334422
N    -1.408454  -3.286590  0.889215
H    -2.239158  -0.688745  0.849540
H    -1.593885  -1.098712  2.455550
H    -2.297680  -3.319136  1.369059
H    -0.999311  -4.152771  0.561082
O    1.945445  0.707665  1.726883
H    2.651279  0.525279  2.376940
