17
Energy: -13404.3857504 eV PBE+vdW (tier 2 basis)
N    -0.628095  -0.814193  0.612933
C    -0.146397  -0.254216  1.877222
C    1.321455  0.207270  1.788236
O    2.095165  -0.199254  0.954741
H    -0.742564  -0.068106  -0.074455
H    0.104000  -1.422525  0.234209
H    -0.777184  0.617640  2.120580
C    -0.273396  -1.287515  3.023303
C    -1.708221  -1.604454  3.469188
O    -2.003180  -1.658471  4.659374
N    -2.584154  -1.836638  2.456312
H    0.249357  -0.944434  3.923948
H    0.218907  -2.220885  2.705849
H    -2.279449  -1.681681  1.492384
H    -3.553069  -2.017956  2.688331
O    1.736177  1.099143  2.732042
H    0.997649  1.331274  3.322803
