17
Energy: -13404.403332 eV PBE+vdW (tier 2 basis)
N    -0.107824  0.659833  0.278892
C    -0.007251  0.035088  1.602010
C    1.399100  0.366628  2.108558
O    2.391836  -0.302423  1.886674
H    0.435834  0.134059  -0.406965
H    -1.077031  0.669538  -0.036379
H    -0.728867  0.537456  2.260006
C    -0.260585  -1.488757  1.627918
C    -0.324204  -2.054499  3.045690
O    -1.365081  -2.065175  3.695224
N    0.860269  -2.532697  3.533396
H    0.514419  -1.987805  1.028706
H    -1.238604  -1.676606  1.168915
H    1.731235  -2.355374  3.045964
H    0.893631  -2.811551  4.506964
O    1.428584  1.517087  2.816535
H    2.365256  1.676574  3.047306
