17
Energy: -13404.4452162 eV PBE+vdW (tier 2 basis)
N    -0.161968  0.715934  0.226492
C    -0.019913  0.201930  1.575024
C    1.389017  -0.320651  1.898582
O    2.352370  -0.243177  1.170118
H    0.721563  1.121789  -0.084039
H    -0.373578  -0.057907  -0.409760
H    -0.171811  1.027837  2.295801
C    -1.113125  -0.846639  1.886120
C    -0.926936  -2.118382  1.065623
O    -1.125774  -2.150051  -0.146840
N    -0.509970  -3.214619  1.765751
H    -2.076576  -0.405771  1.599654
H    -1.132253  -1.054593  2.962086
H    -0.217693  -3.144708  2.731351
H    -0.282580  -4.054511  1.246211
O    1.465549  -0.845572  3.162025
H    2.404678  -1.081910  3.292801
