17
Energy: -13404.3197116 eV PBE+vdW (tier 2 basis)
N    0.775302  -0.853676  -0.222957
C    -0.146206  -0.006736  0.517819
C    0.364967  0.682227  1.794009
O    -0.048273  1.737039  2.220039
H    1.649151  -0.370820  -0.424938
H    1.002247  -1.708031  0.285081
H    -0.406415  0.847567  -0.125737
C    -1.484093  -0.736256  0.780840
C    -1.505604  -2.107454  1.466632
O    -2.442532  -2.871120  1.268596
N    -0.466155  -2.437027  2.293869
H    -1.973177  -0.898349  -0.186960
H    -2.146845  -0.077882  1.362714
H    0.251100  -1.777285  2.577689
H    -0.548781  -3.311148  2.799932
O    1.361143  -0.018625  2.433497
H    1.593172  0.515578  3.218876
