17
Energy: -13404.4110362 eV PBE+vdW (tier 2 basis)
N    1.982112  -1.859868  2.365089
C    1.037159  -1.422268  1.329920
C    0.912498  0.100492  1.443767
O    -0.076040  0.731264  1.767501
H    1.809742  -2.832158  2.621471
H    2.947643  -1.762833  2.058864
H    1.396699  -1.617388  0.300065
C    -0.319563  -2.129526  1.480004
C    -0.745121  -2.356228  2.935180
O    -0.542007  -3.431885  3.494677
N    -1.375571  -1.306861  3.532136
H    -0.240282  -3.127499  1.033515
H    -1.083698  -1.566084  0.929028
H    -1.313213  -0.385457  3.106500
H    -1.545797  -1.375368  4.528910
O    2.085715  0.702080  1.126175
H    1.952725  1.660586  1.262195
