17
Energy: -13404.437965 eV PBE+vdW (tier 2 basis)
N    1.531912  -2.257503  1.155708
C    0.306389  -1.470758  0.975194
C    0.608110  0.029861  1.033299
O    0.676902  0.730209  2.030979
H    2.223244  -2.036135  0.439793
H    1.948541  -2.079150  2.071117
H    -0.054544  -1.671369  -0.043096
C    -0.795463  -1.927829  1.949339
C    -0.422111  -2.220646  3.411585
O    -0.830558  -3.233732  3.968094
N    0.373583  -1.301080  4.033037
H    -1.207147  -2.870726  1.573879
H    -1.614369  -1.191100  1.949023
H    0.536902  -0.389726  3.602476
H    0.529091  -1.426453  5.026569
O    0.879969  0.523826  -0.203156
H    1.132551  1.460311  -0.077840
