17
Energy: -13404.3428209 eV PBE+vdW (tier 2 basis)
N    1.012961  -0.574089  -0.129436
C    0.604027  0.072218  1.141941
C    1.780335  0.044775  2.146108
O    2.283244  1.067904  2.551596
H    1.921712  -0.215713  -0.427332
H    0.350297  -0.318548  -0.864411
H    0.408566  1.148293  1.014606
C    -0.695411  -0.558707  1.684121
C    -0.744279  -2.058618  1.997655
O    -1.546068  -2.518544  2.793718
N    0.197104  -2.834110  1.344162
H    -1.500552  -0.370838  0.953588
H    -1.001684  -0.041381  2.601942
H    0.601829  -2.439321  0.484440
H    0.072677  -3.839421  1.423751
O    2.242675  -1.161500  2.540019
H    1.683569  -1.888400  2.168534
