17
Energy: -13404.5454105 eV PBE+vdW (tier 2 basis)
N    -1.043336  0.335572  0.072011
C    -0.881948  0.050527  1.506391
C    0.601372  -0.079388  1.939303
O    1.175083  0.853185  2.466784
H    -0.612946  1.234947  -0.145093
H    -0.554645  -0.363038  -0.491709
H    -1.234505  0.936705  2.048789
C    -1.806432  -1.114973  1.920860
C    -1.712655  -2.335524  1.022325
O    -0.628053  -2.792433  0.626618
N    -2.880033  -2.927290  0.683298
H    -2.839118  -0.741318  1.937838
H    -1.561018  -1.440360  2.944495
H    -3.774148  -2.526078  0.929529
H    -2.855876  -3.746956  0.087502
O    1.236498  -1.227548  1.652248
H    0.598669  -1.886355  1.235334
