17
Energy: -13404.4329869 eV PBE+vdW (tier 2 basis)
N    1.242513  -0.540560  2.259724
C    0.057311  -0.065794  1.572803
C    -0.116802  1.421565  1.841869
O    0.274603  2.001515  2.831232
H    1.164730  -1.547248  2.421291
H    1.314420  -0.075789  3.166803
H    0.181025  -0.191013  0.484379
C    -1.286883  -0.767726  1.970394
C    -1.230166  -2.246261  1.616261
O    -0.466716  -3.028832  2.178688
N    -2.054509  -2.641627  0.601938
H    -2.129555  -0.266414  1.473569
H    -1.420140  -0.680892  3.057325
H    -2.693066  -2.006643  0.143547
H    -2.034101  -3.612597  0.313450
O    -0.813693  2.038187  0.846724
H    -0.913971  2.969129  1.126004
