17
Energy: -13404.3906141 eV PBE+vdW (tier 2 basis)
N    -0.348664  -2.223749  0.663087
C    -0.492749  -0.869810  1.199721
C    0.762110  0.014517  1.189131
O    0.744513  1.225554  1.165495
H    -0.268191  -2.190019  -0.352803
H    0.516733  -2.646070  1.002729
H    -1.221803  -0.333148  0.577614
C    -1.083355  -0.893991  2.635063
C    -0.202362  -1.630737  3.641681
O    0.617252  -1.053945  4.347758
N    -0.401537  -2.984369  3.694884
H    -2.075196  -1.360790  2.568239
H    -1.197242  0.134703  2.994815
H    -0.963508  -3.453648  2.994732
H    0.221452  -3.534854  4.274175
O    1.910694  -0.715133  1.223539
H    2.638853  -0.068509  1.299137
