17
Energy: -13404.7027516 eV PBE+vdW (tier 2 basis)
N    -0.124295  -0.130398  -0.354340
C    -0.670808  0.098904  0.992134
C    0.383522  -0.338060  2.043993
O    0.135071  -0.457256  3.227405
H    -0.353183  0.631755  -0.988775
H    -0.518492  -0.993718  -0.745869
H    -0.795379  1.182276  1.143592
C    -2.026560  -0.582896  1.278272
C    -1.917513  -2.082960  1.038661
O    -1.890676  -2.548805  -0.103332
N    -1.817045  -2.854397  2.155690
H    -2.783818  -0.188005  0.589911
H    -2.326420  -0.350960  2.306924
H    -1.603099  -2.426627  3.049970
H    -1.592303  -3.835260  2.029596
O    1.589031  -0.555597  1.508090
H    1.416968  -0.424997  0.524078
