17
Energy: -13404.2777913 eV PBE+vdW (tier 2 basis)
N    -0.630638  0.880934  -0.629751
C    -0.857174  0.039416  0.542648
C    0.026928  0.506505  1.696330
O    -0.353886  0.684135  2.831357
H    0.336545  0.799957  -0.946017
H    -1.231074  0.587426  -1.400651
H    -1.885584  0.212072  0.888616
C    -0.650328  -1.489014  0.299961
C    -0.756545  -2.341345  1.562454
O    0.233361  -2.740504  2.163756
N    -2.030542  -2.626045  1.978788
H    0.353751  -1.652545  -0.108952
H    -1.387678  -1.808313  -0.452310
H    -2.838356  -2.175058  1.569778
H    -2.138752  -3.049460  2.893164
O    1.318386  0.667615  1.303559
H    1.819585  0.912224  2.105270
