17
Energy: -13404.3840848 eV PBE+vdW (tier 2 basis)
N    -1.514073  0.882780  2.210879
C    -0.309433  0.061405  2.096249
C    1.029477  0.809454  2.072362
O    2.033555  0.457438  1.488214
H    -1.566135  1.321746  3.128847
H    -1.501657  1.640121  1.526328
H    -0.267538  -0.583106  2.993360
C    -0.420968  -0.889498  0.904808
C    -1.351583  -2.053209  1.237872
O    -1.354173  -2.592056  2.339019
N    -2.133517  -2.491548  0.208259
H    0.570006  -1.309319  0.679294
H    -0.751517  -0.342883  0.008879
H    -2.206790  -1.983978  -0.662432
H    -2.774222  -3.256096  0.383537
O    0.990980  1.942143  2.833561
H    1.892587  2.315607  2.791964
