24
Energy: -33642.324179 eV PBE+vdW (tier 2 basis)
N    -0.065639  0.938073  0.508069
C    -0.222861  -0.077401  1.625008
C    1.125880  -0.775452  1.777418
O    1.340575  -1.445572  2.823050
H    0.313588  1.829704  0.860041
H    -0.947592  1.146442  0.020453
H    -0.515665  0.462324  2.530828
C    -1.289980  -1.188731  1.276712
C    -0.731883  -2.573420  0.982787
C    -0.222179  -2.915012  -0.285912
C    -0.677684  -3.543652  2.004871
C    0.346409  -4.176384  -0.523643
C    -0.113600  -4.807529  1.773894
C    0.407508  -5.127002  0.508463
H    -1.897074  -0.850909  0.423370
H    -1.974095  -1.251787  2.130432
H    -0.270214  -2.198469  -1.106450
H    -1.072443  -3.308491  2.993535
H    0.712445  -4.425527  -1.519879
H    -0.105031  -5.548899  2.573397
H    0.819766  -6.118356  0.317940
O    1.840210  -0.872444  0.721429
H    0.633120  0.545461  -0.156067
Ca    2.122497  -3.048782  1.441642
