24
Energy: -33641.0636376 eV PBE+vdW (tier 2 basis)
N    0.145040  -1.945895  1.545618
C    0.461983  -0.628408  2.102800
C    1.630579  0.003624  1.334604
O    2.851865  -0.221695  1.669567
H    0.926445  -2.601839  1.589207
H    -0.205310  -1.897727  0.589082
H    -0.403064  0.021427  1.907505
C    0.757363  -0.703315  3.617842
C    -0.212145  -1.507490  4.436002
C    -1.568231  -1.749795  3.934625
C    0.169289  -2.101912  5.624587
C    -2.484613  -2.542640  4.742781
C    -0.748905  -2.869570  6.361583
C    -2.068496  -3.102743  5.925813
H    0.760718  0.327251  4.014989
H    1.775019  -1.084118  3.786474
H    -1.343180  -2.292758  2.951289
H    1.183543  -1.977368  6.004754
H    -3.502187  -2.689278  4.378867
H    -0.421326  -3.308966  7.305435
H    -2.742190  -3.709593  6.528460
O    1.380039  0.718770  0.296076
H    -2.056988  -0.854885  3.506782
Ca    3.505752  1.012922  -0.008741
