24
Energy: -33640.4662472 eV PBE+vdW (tier 2 basis)
N    -1.221828  -1.024997  0.284692
C    -0.429261  -0.597914  1.407624
C    0.889652  -0.008887  0.929963
O    1.020195  0.360969  -0.291624
H    -1.004887  -0.541303  -0.583583
H    -2.223682  -1.013834  0.457808
H    -0.888664  0.228941  1.994798
C    -0.250241  -1.838318  2.327680
C    0.296365  -1.589269  3.803510
C    -0.588584  -0.749551  4.624882
C    0.671299  -2.880848  4.396643
C    -1.081053  -1.184095  5.829242
C    0.173458  -3.297080  5.607266
C    -0.710281  -2.457517  6.313379
H    0.410137  -2.558512  1.828165
H    -1.232061  -2.318961  2.413096
H    -0.849455  0.245408  4.261930
H    1.348089  -3.524514  3.831895
H    -1.746652  -0.555927  6.419752
H    0.451043  -4.264844  6.022696
H    -1.112313  -2.796511  7.269966
O    1.878749  0.156708  1.742705
H    1.232672  -1.009596  3.620279
Ca    3.024303  1.060451  0.099234
