24
Energy: -33641.8626674 eV PBE+vdW (tier 2 basis)
N    -0.270660  0.487200  0.166595
C    0.064881  0.018029  1.564591
C    1.500688  -0.498845  1.555266
O    1.973635  -1.053022  2.599835
H    -0.871264  1.320916  0.166550
H    -0.787734  -0.296594  -0.308812
H    0.052564  0.893768  2.231467
C    -0.981768  -1.027197  2.031746
C    -1.188892  -2.099530  0.989768
C    -0.385352  -3.250180  0.962186
C    -2.163848  -1.929220  -0.011619
C    -0.549287  -4.202218  -0.044473
C    -2.318538  -2.880723  -1.026225
C    -1.505890  -4.013309  -1.046236
H    -1.919231  -0.494096  2.243494
H    -0.629489  -1.436639  2.986825
H    0.327133  -3.430481  1.769790
H    -2.866406  -1.092298  0.044939
H    0.051514  -5.111235  -0.035665
H    -3.093239  -2.747596  -1.780246
H    -1.636945  -4.764529  -1.823726
O    2.233888  -0.333855  0.512543
H    0.593587  0.681705  -0.364317
Ca    3.909653  -1.285049  1.617722
