24
Energy: -33640.3966042 eV PBE+vdW (tier 2 basis)
N    0.110322  1.094355  0.303298
C    0.018549  0.385660  1.574089
C    1.439381  -0.131512  1.530532
O    2.440906  0.471743  2.001545
H    -0.023742  2.100344  0.348156
H    -0.377177  0.652657  -0.473783
H    -0.029308  1.098520  2.407200
C    -1.113533  -0.653345  1.714105
C    -1.137143  -1.684786  0.609508
C    -1.772798  -1.428999  -0.614300
C    -0.455686  -2.916233  0.768487
C    -1.713329  -2.357932  -1.655902
C    -0.405106  -3.849300  -0.282129
C    -1.017028  -3.560450  -1.499824
H    -2.051790  -0.080967  1.724448
H    -1.028909  -1.135233  2.699016
H    -2.361649  -0.518632  -0.741319
H    -0.101458  -3.211243  1.761160
H    -2.231006  -2.149207  -2.591745
H    0.080098  -4.812617  -0.126630
H    -0.989987  -4.285083  -2.312263
O    1.774573  -1.262430  0.844272
H    0.941623  -1.880330  0.619954
Ca    4.017832  -0.724731  1.174114
