24
Energy: -33640.9948328 eV PBE+vdW (tier 2 basis)
N    -0.677901  -0.198165  1.841963
C    0.611041  -0.382760  2.486243
C    1.738594  0.018661  1.530462
O    2.091318  -0.760211  0.565655
H    -0.727087  -0.607908  0.909285
H    -0.974203  0.775394  1.806794
H    0.665858  0.304628  3.341126
C    0.802345  -1.854072  2.974194
C    -0.146308  -2.213524  4.072083
C    0.342993  -2.255811  5.466768
C    -1.480401  -2.495803  3.834886
C    -0.614746  -2.561721  6.538390
C    -2.347232  -2.786584  4.902243
C    -1.927776  -2.820762  6.250823
H    1.840835  -1.982352  3.309779
H    0.651932  -2.519580  2.111301
H    0.898601  -1.326617  5.715775
H    -1.871617  -2.490192  2.819972
H    -0.244056  -2.590689  7.564005
H    -3.393964  -2.999799  4.676228
H    -2.642257  -3.056483  7.037907
O    2.279250  1.181241  1.634633
H    1.172196  -2.997737  5.532657
Ca    3.443583  0.785846  -0.148171
