24
Energy: -33640.9931307 eV PBE+vdW (tier 2 basis)
N    -0.801128  -1.205315  1.187083
C    0.312267  -0.735874  1.976290
C    1.520638  -0.200335  1.175197
O    1.418679  -0.030977  -0.092770
H    -0.546462  -1.972845  0.564812
H    -1.215210  -0.469015  0.617107
H    -0.021819  0.150268  2.548590
C    0.781808  -1.800483  2.998557
C    -0.149115  -2.094373  4.141412
C    0.455450  -2.567614  5.407863
C    -1.525660  -1.978411  4.075649
C    -0.435418  -2.944577  6.514456
C    -2.321822  -2.328878  5.180974
C    -1.793351  -2.824378  6.393170
H    1.767055  -1.518805  3.394997
H    0.941632  -2.753245  2.458458
H    1.153917  -1.788503  5.789570
H    -1.992602  -1.644418  3.149221
H    0.020950  -3.305544  7.437316
H    -3.404618  -2.219745  5.090915
H    -2.460210  -3.095017  7.210219
O    2.613665  0.128877  1.772530
H    1.174834  -3.390775  5.211277
Ca    3.401521  0.840984  -0.125894
