24
Energy: -33641.0058229 eV PBE+vdW (tier 2 basis)
N    0.725431  -2.629978  1.584957
C    0.957165  -1.307507  2.096718
C    2.120624  -0.537639  1.445031
O    2.266190  0.723255  1.659248
H    1.591103  -3.135725  1.397318
H    0.165817  -2.632077  0.734910
H    0.065964  -0.686503  1.914241
C    1.210818  -1.324890  3.654890
C    -0.000157  -1.765638  4.411296
C    -0.838164  -0.754914  5.090455
C    -0.379225  -3.094453  4.484805
C    -2.056129  -1.203140  5.779609
C    -1.551976  -3.461976  5.166788
C    -2.393738  -2.529454  5.813209
H    1.522055  -0.321849  3.974258
H    2.039093  -2.023115  3.846225
H    -1.078057  0.085948  4.405850
H    0.221860  -3.863410  4.004446
H    -2.670227  -0.450683  6.276391
H    -1.822776  -4.519246  5.199286
H    -3.289148  -2.870846  6.330185
O    2.943351  -1.148381  0.672162
H    -0.209771  -0.217368  5.838348
Ca    3.939897  0.739591  0.273372
