37
Energy: -39740.9615842 eV PBE+vdW (tier 2 basis)
C    -0.223647  -0.935871  0.103749
C    -0.232726  -0.395324  1.490407
O    0.876714  -0.471766  2.193990
H    0.524260  -0.397210  -0.495905
H    -1.194093  -0.856649  -0.392739
H    0.078176  -1.992513  0.124267
N    -1.274458  0.155189  2.050237
C    -2.600979  0.516303  1.521133
C    -2.947358  1.735835  2.443042
O    -2.411809  1.761488  3.559857
H    -1.230841  0.572746  3.016310
H    -2.518662  0.815995  0.467193
C    -3.600515  -0.656683  1.698668
C    -5.013097  -0.385265  1.153933
C    -5.933037  -1.603159  1.337874
N    -7.264260  -1.338940  0.782442
C    -8.411074  -1.934806  1.163492
N    -9.578540  -1.468361  0.705059
N    -8.395480  -2.967997  2.013805
H    -3.649236  -0.899359  2.771180
H    -3.175527  -1.537648  1.192700
H    -4.954181  -0.134296  0.081468
H    -5.465409  0.473975  1.668606
H    -6.048154  -1.817131  2.410254
H    -5.489256  -2.491332  0.857704
H    -7.311909  -0.776177  -0.061699
H    -9.655080  -0.557349  0.268078
H    -10.432919  -2.008063  0.791615
H    -7.568724  -3.537338  2.143361
H    -9.255670  -3.313786  2.425666
N    -3.803455  2.646713  1.970668
C    -4.222265  3.830173  2.728692
H    -4.104582  2.575609  1.003731
H    -3.750703  4.732100  2.319389
H    -3.917992  3.703225  3.770621
H    -5.311149  3.937432  2.674371
Ca    2.648199  -0.523359  3.128067
