37
Energy: -39740.7190117 eV PBE+vdW (tier 2 basis)
C    -1.517068  -1.483261  1.696025
C    -1.574800  -1.384497  3.179743
O    -0.999574  -2.337796  3.882886
H    -2.084179  -2.367262  1.368704
H    -0.477480  -1.629572  1.373224
H    -1.923948  -0.602901  1.193317
N    -2.161524  -0.418807  3.833504
C    -2.638076  0.910380  3.416800
C    -2.184640  1.766503  4.657746
O    -1.952937  1.146596  5.709117
H    -2.044690  -0.333668  4.885749
H    -2.116966  1.229176  2.503757
C    -4.171847  1.022904  3.242432
C    -4.768614  0.280991  2.034372
C    -6.139217  0.799606  1.568747
N    -7.231286  0.536837  2.514423
C    -8.541237  0.545090  2.188721
N    -9.448024  0.166225  3.098095
N    -8.938582  0.903539  0.964201
H    -4.382371  2.099002  3.143301
H    -4.642222  0.707307  4.186792
H    -4.826164  -0.801735  2.221258
H    -4.110405  0.415740  1.162651
H    -6.389860  0.295520  0.625148
H    -6.065241  1.881560  1.363695
H    -7.023051  0.565117  3.506884
H    -10.438131  0.335552  2.957326
H    -9.185610  -0.343511  3.932943
H    -9.896406  0.756670  0.663164
H    -8.346555  1.442004  0.343917
N    -2.111102  3.087179  4.501189
C    -1.741318  4.017084  5.574085
H    -2.271618  3.480691  3.578409
H    -0.782221  4.495494  5.342563
H    -1.654933  3.457010  6.508211
H    -2.513409  4.787817  5.677752
Ca    0.107328  -3.683695  4.873000
