37
Energy: -39742.1860578 eV PBE+vdW (tier 2 basis)
C    0.815692  -1.855002  2.349828
C    0.366773  -0.449359  2.126699
O    1.220213  0.493376  2.085112
H    1.521496  -2.142490  1.557746
H    -0.002470  -2.581978  2.378475
H    1.374100  -1.900605  3.296055
N    -0.947044  -0.220777  1.970938
C    -1.692251  1.054309  1.842661
C    -1.302338  1.866062  0.588277
O    -0.151966  2.399515  0.468464
H    -1.528745  -1.054805  1.990227
H    -2.730938  0.729583  1.690995
C    -1.672178  1.929147  3.122045
C    -2.479831  1.312580  4.279896
C    -2.619146  2.268129  5.476984
N    -3.466786  1.670348  6.513365
C    -3.522350  2.056922  7.805634
N    -4.202161  1.312844  8.683629
N    -2.879060  3.156021  8.216871
H    -2.101697  2.906578  2.852461
H    -0.633558  2.116058  3.430908
H    -2.015834  0.374610  4.618955
H    -3.488720  1.060401  3.912706
H    -3.046575  3.226632  5.136156
H    -1.631853  2.472468  5.916970
H    -4.196630  1.033480  6.207812
H    -4.491024  0.364575  8.471724
H    -4.446119  1.670039  9.601601
H    -2.798773  3.367545  9.206352
H    -2.641141  3.903130  7.576251
N    -2.234167  2.029001  -0.333389
C    -2.094643  2.816104  -1.563648
H    -3.127132  1.559504  -0.197145
H    -1.888990  2.150379  -2.412120
H    -1.280722  3.535575  -1.449348
H    -3.034504  3.346968  -1.748431
Ca    1.896073  2.172136  0.991282
