37
Energy: -39740.7159074 eV PBE+vdW (tier 2 basis)
C    -0.005638  1.062012  0.278878
C    -0.222134  0.745877  1.717456
O    0.818753  0.725624  2.515908
H    0.250999  2.127441  0.172646
H    -0.876657  0.852971  -0.347174
H    0.845043  0.481062  -0.100533
N    -1.405948  0.499037  2.227542
C    -2.739435  0.511851  1.577078
C    -3.681177  1.010612  2.704370
O    -3.709681  0.347557  3.749244
H    -1.471686  0.262227  3.226086
H    -2.710857  1.202504  0.724988
C    -3.110949  -0.921461  1.134591
C    -4.497564  -1.110561  0.493047
C    -5.735376  -1.007049  1.404597
N    -5.721710  -1.881042  2.581829
C    -6.446594  -3.001984  2.745992
N    -6.629610  -3.491834  3.979931
N    -6.978119  -3.642739  1.698494
H    -3.004996  -1.581237  2.008645
H    -2.354126  -1.248930  0.406883
H    -4.484302  -2.102825  0.018632
H    -4.641486  -0.395365  -0.331811
H    -6.634632  -1.226476  0.814290
H    -5.876085  0.016596  1.772398
H    -5.230433  -1.523106  3.398661
H    -7.010546  -4.420027  4.126656
H    -6.503811  -2.913435  4.802080
H    -7.680121  -4.363177  1.826980
H    -6.694306  -3.446715  0.747599
N    -4.389981  2.121810  2.456614
C    -5.339044  2.707163  3.405756
H    -4.278793  2.582998  1.558491
H    -5.143667  3.780446  3.507216
H    -5.210951  2.218523  4.375268
H    -6.370492  2.568114  3.056504
Ca    2.605397  0.842578  3.443860
