37
Energy: -39741.6107886 eV PBE+vdW (tier 2 basis)
C    0.397835  0.391511  0.259851
C    0.066193  0.048765  1.667607
O    0.982506  -0.224779  2.505279
H    1.056442  1.270146  0.210110
H    -0.477361  0.538373  -0.378527
H    0.990033  -0.445954  -0.144183
N    -1.227313  -0.004291  2.091110
C    -2.162065  1.108730  1.899619
C    -1.606798  2.315879  2.722200
O    -0.630657  2.123232  3.531015
H    -1.312049  -0.432129  3.015475
H    -2.155696  1.397149  0.837624
C    -3.592158  0.693746  2.314483
C    -4.226005  -0.342220  1.368213
C    -5.663601  -0.695875  1.785123
N    -6.257176  -1.648342  0.842503
C    -7.315094  -2.447687  1.095159
N    -7.643085  -3.398407  0.214269
N    -8.014856  -2.315991  2.227873
H    -4.221271  1.593254  2.352094
H    -3.562217  0.308919  3.347285
H    -3.620061  -1.259423  1.340177
H    -4.237198  0.067273  0.344653
H    -6.273111  0.222418  1.838229
H    -5.661267  -1.159264  2.782769
H    -5.966009  -1.587634  -0.128587
H    -7.007576  -3.690648  -0.519279
H    -8.539445  -3.871942  0.257708
H    -8.020069  -1.450523  2.753339
H    -8.710453  -3.007267  2.489407
N    -2.108943  3.526415  2.577323
C    -3.156990  4.006967  1.670170
H    -1.691578  4.235179  3.184522
H    -4.101061  4.139867  2.214018
H    -3.301261  3.318673  0.832982
H    -2.845596  4.978365  1.270242
Ca    1.207424  1.162109  4.149198
