37
Energy: -39741.9733616 eV PBE+vdW (tier 2 basis)
C    -2.275583  -0.259024  -0.168241
C    -1.874673  -0.402739  1.261706
O    -1.161416  -1.388715  1.627484
H    -2.829282  -1.160001  -0.470487
H    -1.374779  -0.222050  -0.796976
H    -2.888653  0.625284  -0.370455
N    -2.288697  0.533945  2.133805
C    -2.136725  0.601289  3.607300
C    -0.657707  0.696389  4.034468
O    0.112562  -0.315718  3.933621
H    -2.820608  1.294257  1.718555
H    -2.616124  1.548796  3.879348
C    -2.854331  -0.546124  4.361642
C    -4.396157  -0.556350  4.258057
C    -5.114375  0.253822  5.352169
N    -6.568003  0.125921  5.216302
C    -7.469037  0.112235  6.221651
N    -8.721121  -0.283578  5.972553
N    -7.116011  0.466965  7.462902
H    -2.545843  -0.497776  5.417410
H    -2.475668  -1.504689  3.984471
H    -4.734590  -1.598627  4.333364
H    -4.712002  -0.208020  3.261360
H    -4.822349  1.317627  5.320166
H    -4.832320  -0.141716  6.338250
H    -6.951097  0.118598  4.275711
H    -9.473793  -0.096495  6.627266
H    -8.962890  -0.803242  5.136265
H    -7.742435  0.302164  8.244531
H    -6.327565  1.077288  7.638073
N    -0.189677  1.821033  4.547002
C    -0.858549  3.114641  4.748474
H    0.784339  1.766747  4.852637
H    -1.529833  3.080245  5.615753
H    -1.403211  3.424592  3.850221
H    -0.084796  3.862683  4.944968
Ca    0.517997  -2.035658  2.744674
