37
Energy: -39742.1003838 eV PBE+vdW (tier 2 basis)
C    -1.493934  0.573607  0.155009
C    -0.917300  0.230937  1.486902
O    -0.035641  -0.681830  1.586371
H    -1.982723  -0.323360  -0.254170
H    -0.683875  0.832578  -0.540666
H    -2.219316  1.393106  0.184478
N    -1.351729  0.906917  2.561290
C    -1.088251  0.694518  4.006570
C    0.400228  0.895181  4.367110
O    1.288884  0.054764  4.012689
H    -2.045298  1.624035  2.361104
H    -1.645336  1.510873  4.486616
C    -1.679959  -0.635261  4.537680
C    -1.942926  -0.625677  6.055569
C    -2.657922  -1.909689  6.521983
N    -2.896492  -1.945555  7.968289
C    -4.087317  -2.059061  8.595882
N    -4.124342  -2.538623  9.842626
N    -5.225801  -1.694307  7.994327
H    -1.027745  -1.476992  4.262127
H    -2.626808  -0.791580  4.000154
H    -2.560056  0.246920  6.321134
H    -0.997719  -0.519643  6.611194
H    -2.059821  -2.795346  6.257671
H    -3.620332  -2.030990  6.008356
H    -2.081893  -2.089333  8.558105
H    -3.358607  -3.076278  10.233837
H    -4.944369  -2.421333  10.429356
H    -6.125302  -1.939499  8.394896
H    -5.236610  -1.058799  7.207732
N    0.708438  1.960988  5.084949
C    2.053912  2.323604  5.543325
H    -0.040159  2.611445  5.314709
H    1.976341  2.776391  6.537094
H    2.501193  3.053386  4.855487
H    2.679157  1.428907  5.592677
Ca    1.825432  -1.236001  2.391536
