37
Energy: -39742.023015 eV PBE+vdW (tier 2 basis)
C    1.343875  -2.672560  4.255004
C    0.587650  -1.422646  3.963203
O    1.042178  -0.565900  3.139364
H    1.453944  -3.239707  3.318290
H    0.865171  -3.310859  5.004759
H    2.359966  -2.420608  4.588278
N    -0.589565  -1.218794  4.576897
C    -1.548003  -0.125772  4.312143
C    -0.995857  1.202367  4.896016
O    -0.127947  1.846203  4.220764
H    -0.880670  -1.929931  5.245004
H    -1.566729  0.033751  3.222277
C    -2.949639  -0.560683  4.787881
C    -4.108011  0.381956  4.374495
C    -4.959084  -0.092103  3.178200
N    -5.882577  -1.194969  3.472928
C    -7.129810  -1.075603  3.983208
N    -7.838165  -2.177843  4.243010
N    -7.643711  0.127701  4.264181
H    -2.942851  -0.701837  5.880962
H    -3.124957  -1.568991  4.382673
H    -3.720340  1.380046  4.119388
H    -4.770563  0.541163  5.235786
H    -4.323202  -0.439810  2.353290
H    -5.515609  0.760785  2.762675
H    -5.661900  -2.098735  3.069177
H    -7.434381  -3.105167  4.176607
H    -8.825913  -2.131451  4.471538
H    -8.562172  0.209723  4.688521
H    -7.270020  0.971986  3.849036
N    -1.413892  1.628240  6.071416
C    -0.950648  2.841672  6.755837
H    -2.097170  1.057749  6.564164
H    -1.799759  3.300759  7.272200
H    -0.542752  3.541637  6.022886
H    -0.180161  2.585354  7.494821
Ca    1.461274  1.484878  2.823122
