37
Energy: -39741.5620545 eV PBE+vdW (tier 2 basis)
C    -4.408185  -1.306973  1.365099
C    -3.010617  -1.534860  0.912223
O    -2.759271  -2.334758  -0.044243
H    -4.491050  -0.659715  2.242201
H    -4.825564  -2.295206  1.619545
H    -5.034721  -0.921906  0.548370
N    -1.963041  -0.921563  1.528671
C    -1.911549  0.528679  1.723099
C    -1.632852  1.154464  0.310362
O    -1.629102  0.406430  -0.724870
H    -1.063294  -1.323784  1.256844
H    -2.918209  0.866398  2.016403
C    -0.900859  0.920374  2.825961
C    -1.272289  0.322434  4.195572
C    -0.249424  0.532594  5.322814
N    -0.283234  1.891194  5.885273
C    0.646031  2.379025  6.742260
N    1.699765  1.639894  7.100550
N    0.522474  3.629436  7.199501
H    -0.849250  2.017108  2.893996
H    0.106193  0.588430  2.525438
H    -1.389876  -0.765428  4.091464
H    -2.259241  0.692607  4.519110
H    0.766740  0.341857  4.946895
H    -0.461839  -0.207360  6.111435
H    -1.200682  2.323486  5.956061
H    1.699349  0.630871  7.014767
H    2.463297  2.046015  7.632154
H    -0.148296  4.279370  6.807179
H    1.087816  3.968656  7.970845
N    -1.440312  2.453007  0.210630
C    -1.216238  3.176230  -1.050539
H    -1.471973  3.007569  1.062226
H    -0.987462  4.218241  -0.813211
H    -2.117313  3.140064  -1.674853
H    -0.372005  2.735932  -1.592360
Ca    -1.951694  -1.435726  -1.829065
