37
Energy: -39742.1050559 eV PBE+vdW (tier 2 basis)
C    -1.653320  -0.904808  -0.509892
C    -1.062466  -0.704612  0.842585
O    0.167504  -0.411003  0.979094
H    -1.106061  -1.700909  -1.034108
H    -1.507548  0.013280  -1.097929
H    -2.719143  -1.154465  -0.490367
N    -1.849294  -0.832909  1.925385
C    -1.430065  -0.570040  3.313708
C    -0.437385  -1.667751  3.788313
O    0.807024  -1.425638  3.615823
H    -2.819855  -1.093238  1.764774
H    -0.799280  0.331359  3.285625
C    -2.634186  -0.272430  4.231042
C    -3.220093  1.141327  4.046143
C    -4.409205  1.382855  4.992450
N    -4.955416  2.731807  4.821551
C    -5.679742  3.406790  5.739947
N    -6.095379  2.804462  6.859625
N    -5.956380  4.698711  5.535065
H    -2.294079  -0.390093  5.270806
H    -3.421804  -1.025370  4.081718
H    -3.550002  1.281739  3.003942
H    -2.444786  1.896826  4.243502
H    -4.075511  1.282426  6.035722
H    -5.191177  0.625619  4.811716
H    -4.938388  3.130063  3.887507
H    -6.499366  3.344513  7.618235
H    -6.198524  1.798867  6.917934
H    -6.663848  5.179761  6.080764
H    -5.458235  5.250074  4.845792
N    -0.797842  -2.817160  4.329391
C    -2.124134  -3.398062  4.570717
H    -0.005399  -3.398803  4.610541
H    -2.534594  -3.059070  5.529610
H    -2.007273  -4.485501  4.610537
H    -2.812624  -3.162615  3.754181
Ca    2.009878  -0.670003  2.015553
