37
Energy: -39739.441883 eV PBE+vdW (tier 2 basis)
C    0.492503  -0.999413  0.308049
C    0.157810  -0.320613  1.601638
O    1.142401  -0.015149  2.406326
H    -0.386516  -1.227105  -0.305045
H    1.014202  -1.947429  0.507029
H    1.156842  -0.356873  -0.289669
N    -1.108156  -0.065957  1.863490
C    -1.918403  0.608481  2.911293
C    -2.564173  1.946658  2.370101
O    -3.775018  2.036928  2.489141
H    -1.719130  -0.384897  1.109400
H    -2.812453  -0.026531  2.959756
C    -1.368733  0.700445  4.346842
C    -2.373599  1.479862  5.234425
C    -2.313492  1.222172  6.746750
N    -3.177622  0.094365  7.133257
C    -3.358194  -0.330056  8.402678
N    -4.187480  -1.350954  8.646200
N    -2.682022  0.235185  9.409210
H    -0.392763  1.203002  4.381485
H    -1.226251  -0.324099  4.723273
H    -3.403404  1.302850  4.886440
H    -2.220149  2.555510  5.078317
H    -2.651021  2.138845  7.256734
H    -1.285509  1.010550  7.079248
H    -3.924558  -0.134734  6.483495
H    -4.477424  -1.583871  9.589884
H    -4.595033  -1.898686  7.897780
H    -2.259905  1.150488  9.314125
H    -2.746469  -0.135609  10.351448
N    -1.791427  2.928461  1.842295
C    -0.351358  3.009085  1.683196
H    -2.340011  3.724333  1.518561
H    -0.002263  2.513846  0.762472
H    -0.067704  4.064877  1.618109
H    0.169169  2.585442  2.552761
Ca    3.137327  0.003438  2.793280
