37
Energy: -39741.5144843 eV PBE+vdW (tier 2 basis)
C    0.408333  -1.534717  2.132626
C    -0.441812  -1.839379  3.314620
O    -0.004046  -2.573504  4.255918
H    1.313240  -0.984311  2.427886
H    -0.114356  -0.993666  1.339539
H    0.762594  -2.497689  1.731716
N    -1.712092  -1.361050  3.407470
C    -2.030821  0.057153  3.232548
C    -1.355835  0.822287  4.427023
O    -0.707228  0.171644  5.314230
H    -2.238962  -1.798396  4.167018
H    -1.557941  0.412947  2.304580
C    -3.562221  0.268016  3.182191
C    -4.307541  -0.425557  2.020461
C    -4.478510  0.429360  0.753903
N    -5.355038  -0.268789  -0.192560
C    -5.561821  0.070008  -1.482064
N    -6.253568  -0.754358  -2.274341
N    -5.050829  1.203942  -1.978034
H    -3.776383  1.346737  3.170453
H    -3.980247  -0.092555  4.134659
H    -5.310086  -0.679648  2.395636
H    -3.822993  -1.379824  1.765552
H    -3.512160  0.615222  0.259866
H    -4.915117  1.404251  1.031898
H    -5.985858  -0.965588  0.192931
H    -6.457341  -1.710351  -2.005332
H    -6.609732  -0.448170  -3.173881
H    -5.097291  1.398151  -2.973217
H    -4.821862  1.987178  -1.378778
N    -1.462763  2.133094  4.486732
C    -0.883687  2.979766  5.541605
H    -1.973601  2.606917  3.745677
H    0.211308  2.970191  5.478879
H    -1.202433  2.623139  6.527128
H    -1.241240  4.002297  5.396051
Ca    0.308462  -1.560712  6.136053
