37
Energy: -39739.1908801 eV PBE+vdW (tier 2 basis)
C    0.182649  -0.295611  0.913661
C    -0.434559  -0.913546  2.150383
O    0.190268  -1.632221  2.909174
H    -0.187480  0.708875  0.670132
H    -0.012543  -0.951326  0.052215
H    1.267405  -0.250876  1.048195
N    -1.812872  -0.744898  2.370723
C    -2.649910  0.420021  2.121080
C    -2.784528  0.746669  0.633158
O    -2.729760  1.982465  0.198944
H    -2.113267  -1.305822  3.167666
H    -3.679751  0.082863  2.354497
C    -2.384480  1.589172  3.112070
C    -0.930221  2.057253  3.304205
C    -0.580267  2.443842  4.757626
N    -0.565060  1.311274  5.693313
C    0.408480  0.378249  5.799214
N    0.216449  -0.682846  6.586167
N    1.540250  0.491329  5.094389
H    -2.755058  1.199360  4.071871
H    -3.048975  2.436083  2.882221
H    -0.706979  2.930171  2.673295
H    -0.225825  1.278430  2.990521
H    -1.310186  3.157039  5.160504
H    0.383816  2.974085  4.778788
H    -1.231473  1.341997  6.458014
H    0.985924  -1.289958  6.849486
H    -0.683703  -0.882557  7.006960
H    1.876271  1.395760  4.787174
H    2.205042  -0.274760  5.064294
N    -3.040451  -0.202784  -0.241406
C    -3.299592  -1.636615  -0.023902
H    -3.105804  0.101873  -1.212446
H    -3.832499  -2.007537  -0.904807
H    -3.923640  -1.787871  0.861932
H    -2.360329  -2.188844  0.092310
Ca    -2.996554  3.808640  -0.636341
