37
Energy: -39740.5782522 eV PBE+vdW (tier 2 basis)
C    0.361391  0.716008  -0.079041
C    0.363100  0.664914  1.416648
O    1.362424  0.986341  2.088522
H    0.555211  1.748556  -0.399872
H    -0.567656  0.362099  -0.538477
H    1.201663  0.114843  -0.451677
N    -0.794001  0.259279  2.033988
C    -0.927495  -0.057583  3.463548
C    -0.801141  1.213104  4.325756
O    -1.786468  1.572666  5.114892
H    -1.588919  0.045318  1.440486
H    -1.958903  -0.410378  3.593745
C    0.045587  -1.177094  3.946689
C    -0.142976  -2.487549  3.161615
C    1.044651  -3.458940  3.180089
N    1.203458  -4.165651  4.460002
C    2.276004  -4.926466  4.772410
N    3.297764  -5.047595  3.919812
N    2.329044  -5.534127  5.963881
H    -0.118955  -1.330086  5.023662
H    1.077847  -0.819922  3.833069
H    -0.295984  -2.249632  2.099325
H    -1.060335  -3.009023  3.479241
H    1.973540  -2.905362  2.976705
H    0.897592  -4.188634  2.366916
H    0.349010  -4.388070  4.962700
H    4.159596  -5.504277  4.199453
H    3.202052  -4.826866  2.936408
H    1.670352  -5.319674  6.702327
H    3.023544  -6.245829  6.163440
N    0.295135  1.907459  4.241735
C    0.584887  3.143372  4.959111
H    0.948855  1.554240  3.448310
H    1.624771  3.421394  4.764755
H    0.461310  3.004563  6.041662
H    -0.057108  3.963019  4.603990
Ca    -3.189012  2.505138  6.211305
