37
Energy: -39740.8170793 eV PBE+vdW (tier 2 basis)
C    0.812000  -1.168251  1.183807
C    0.137986  -0.211842  2.104511
O    0.833503  0.269821  3.112062
H    1.697077  -0.690292  0.739794
H    0.163448  -1.521139  0.378151
H    1.167093  -2.037591  1.755562
N    -1.100455  0.178813  1.967801
C    -2.047170  -0.003615  0.854345
C    -2.918533  1.289781  0.991916
O    -2.887633  1.883187  2.080823
H    -1.522835  0.921896  2.586380
H    -1.494310  0.005975  -0.094597
C    -2.895434  -1.298449  0.938691
C    -3.916160  -1.357387  2.084703
C    -4.659999  -2.701007  2.196712
N    -5.623916  -2.985055  1.123435
C    -6.967095  -2.970108  1.241386
N    -7.713732  -3.641539  0.356801
N    -7.563898  -2.282397  2.221691
H    -2.206619  -2.155951  1.002271
H    -3.407344  -1.393465  -0.031253
H    -4.643074  -0.536745  1.987737
H    -3.408921  -1.201763  3.049119
H    -5.195298  -2.749860  3.153629
H    -3.943235  -3.534867  2.213572
H    -5.265412  -3.428734  0.284089
H    -8.715265  -3.493473  0.291684
H    -7.326369  -4.384804  -0.213571
H    -7.070712  -1.587909  2.766845
H    -8.545967  -2.421020  2.433793
N    -3.656690  1.639835  -0.064130
C    -4.516493  2.827294  -0.094267
H    -3.540577  1.124239  -0.931726
H    -5.496615  2.562722  -0.505802
H    -4.065194  3.608788  -0.717991
H    -4.632473  3.202237  0.925710
Ca    2.099840  1.048824  4.458031
