37
Energy: -39741.9460997 eV PBE+vdW (tier 2 basis)
C    0.066899  1.153874  0.556261
C    -0.159046  -0.090183  1.349303
O    0.804480  -0.891404  1.565426
H    -0.830857  1.767222  0.427414
H    0.458614  0.874122  -0.432662
H    0.847116  1.758580  1.039635
N    -1.396083  -0.324136  1.818577
C    -1.962207  -1.501738  2.518757
C    -1.298579  -1.765897  3.883438
O    -0.078607  -2.132081  3.964652
H    -2.072769  0.403308  1.601617
H    -2.998236  -1.204652  2.720390
C    -2.017917  -2.790129  1.656445
C    -2.895783  -2.629992  0.401862
C    -2.980311  -3.875573  -0.505389
N    -3.886837  -4.937449  -0.049729
C    -5.053173  -5.285676  -0.639612
N    -5.549541  -6.510761  -0.439045
N    -5.722115  -4.419155  -1.406913
H    -2.410507  -3.589664  2.304537
H    -0.999590  -3.089517  1.367511
H    -2.490117  -1.819383  -0.221822
H    -3.912739  -2.322183  0.691918
H    -1.984747  -4.324078  -0.637740
H    -3.299314  -3.570620  -1.509927
H    -3.516188  -5.617414  0.605973
H    -6.506244  -6.739562  -0.689670
H    -4.968412  -7.279227  -0.123008
H    -6.489152  -4.727795  -1.995454
H    -5.530269  -3.426106  -1.393705
N    -2.018196  -1.655961  4.986524
C    -3.418913  -1.238870  5.158148
H    -1.513764  -1.902033  5.840687
H    -4.108351  -1.992256  4.757904
H    -3.601445  -0.262970  4.693931
H    -3.606736  -1.140918  6.231176
Ca    1.839634  -1.972722  3.059592
