23
Energy: -30562.1275733 eV PBE+vdW (tier 2 basis)
N    0.820967  -0.441960  -0.020984
C    0.203032  -0.200512  1.281604
C    1.516071  0.006527  2.020081
O    2.111498  1.140900  2.079715
H    0.868923  -1.423680  -0.285175
H    0.450600  0.121303  -0.781370
H    -0.326443  0.762390  1.267195
C    -0.708432  -1.276136  1.896397
C    -1.984299  -1.526380  1.056615
C    -1.079791  -0.873977  3.333322
C    -1.828364  -2.327109  -0.238804
H    -0.152926  -2.240748  1.918969
H    -2.469196  -0.556979  0.854837
H    -2.679005  -2.066190  1.715718
H    -1.627183  -1.685559  3.826313
H    -1.734585  0.008632  3.332240
H    -0.210988  -0.645466  3.970278
H    -1.329573  -1.769246  -1.041434
H    -2.816517  -2.604891  -0.624783
H    -1.277956  -3.264580  -0.073178
O    2.172413  -0.988406  2.549916
H    1.627066  -1.808309  2.544967
Ca    3.495552  2.594668  2.264999
