23
Energy: -30563.2849479 eV PBE+vdW (tier 2 basis)
N    0.809805  -0.659139  -0.052436
C    0.569459  -0.431647  1.412024
C    1.864982  -0.816990  2.115857
O    2.528042  -1.787659  1.686892
H    -0.082941  -0.535735  -0.545271
H    1.407985  0.091971  -0.418743
H    0.325419  0.622803  1.612081
C    -0.647681  -1.298961  1.887392
C    -0.965320  -1.141499  3.396153
C    -0.564972  -2.774280  1.455396
C    -0.230547  -2.066324  4.372741
H    -1.495392  -0.854703  1.338955
H    -2.046547  -1.303746  3.508770
H    -0.817885  -0.085192  3.675723
H    -0.609000  -2.907145  0.353666
H    -1.453072  -3.319756  1.802520
H    0.279997  -3.321058  1.919864
H    0.864837  -2.018544  4.308780
H    -0.529214  -3.115561  4.251214
H    -0.493331  -1.790321  5.400890
O    2.306347  -0.184565  3.164277
H    1.745974  0.569708  3.439407
Ca    1.855822  -2.862703  -0.064868
