23
Energy: -30563.8428677 eV PBE+vdW (tier 2 basis)
N    0.029432  1.018649  0.595803
C    0.346673  0.225780  1.859286
C    1.627107  -0.560809  1.593911
O    2.112061  -1.311672  2.500215
H    0.887937  1.194186  0.047982
H    -0.428432  1.912768  0.817295
H    0.576591  0.961524  2.645504
C    -0.893764  -0.608186  2.281788
C    -0.810635  -1.022661  3.766206
C    -1.148564  -1.779037  1.325124
C    -2.126183  -1.589458  4.304902
H    -1.738879  0.101918  2.204505
H    -0.528548  -0.139254  4.361242
H    -0.003047  -1.756695  3.900837
H    -2.126844  -2.227366  1.528680
H    -0.396743  -2.571363  1.450561
H    -1.168992  -1.496103  0.258959
H    -2.958413  -0.885764  4.166926
H    -2.035228  -1.782132  5.380194
H    -2.399262  -2.540153  3.830472
O    2.226795  -0.438699  0.461357
H    -0.610335  0.476879  -0.006066
Ca    3.802273  -1.825353  1.215320
