23
Energy: -30563.3734979 eV PBE+vdW (tier 2 basis)
N    0.933075  -0.431315  0.270343
C    0.057459  0.038459  1.393835
C    0.988580  0.512784  2.504431
O    2.090035  -0.059043  2.666602
H    1.308908  0.384376  -0.229260
H    0.337431  -0.900781  -0.422284
H    -0.599257  0.859133  1.067217
C    -0.850044  -1.135180  1.897719
C    -1.756537  -0.698997  3.068389
C    -0.065083  -2.420041  2.216276
C    -2.923657  -1.652950  3.337118
H    -1.506901  -1.355801  1.038154
H    -2.171909  0.295407  2.831884
H    -1.156620  -0.582825  3.986458
H    0.411161  -2.875863  1.321506
H    -0.749841  -3.210494  2.549665
H    0.641003  -2.298378  3.061748
H    -3.563215  -1.244758  4.128066
H    -2.591631  -2.641635  3.679463
H    -3.548438  -1.787560  2.444279
O    0.663028  1.461831  3.332361
H    -0.205606  1.873750  3.145341
Ca    2.632122  -1.740912  1.425746
