23
Energy: -30563.4071473 eV PBE+vdW (tier 2 basis)
N    0.214198  0.522811  0.869085
C    -0.090075  -0.301473  2.085350
C    1.179009  -1.051025  2.458413
O    2.043652  -1.293406  1.589192
H    0.624461  1.413313  1.176571
H    -0.685271  0.792524  0.452443
H    -0.394003  0.357170  2.914394
C    -1.263867  -1.319767  1.849004
C    -0.913697  -2.613581  1.077196
C    -2.496061  -0.597500  1.286306
C    -0.416050  -2.509260  -0.383903
H    -1.530145  -1.657453  2.863475
H    -1.834167  -3.211613  1.071494
H    -0.195717  -3.215056  1.652684
H    -3.366138  -1.263175  1.344635
H    -2.399541  -0.320948  0.224359
H    -2.744525  0.307114  1.857644
H    0.648031  -2.820851  -0.471082
H    -0.619120  -1.528602  -0.858826
H    -0.922131  -3.227212  -1.041602
O    1.372076  -1.516374  3.660922
H    0.683098  -1.259365  4.307419
Ca    1.771856  -0.749580  -0.488433
