23
Energy: -30563.8646626 eV PBE+vdW (tier 2 basis)
N    0.213666  0.700254  0.351182
C    -0.168158  0.191806  1.737054
C    1.029630  0.413178  2.645499
O    0.897461  0.294058  3.906666
H    -0.069161  1.677916  0.199322
H    -0.228908  0.126615  -0.381299
H    -1.007241  0.802512  2.096118
C    -0.624795  -1.297375  1.654261
C    -1.380963  -1.744012  2.920851
C    0.522586  -2.246312  1.293261
C    -2.590570  -0.891228  3.301223
H    -1.366289  -1.298635  0.832307
H    -0.680402  -1.816177  3.766335
H    -1.709061  -2.774715  2.721579
H    1.251286  -2.330539  2.113027
H    1.069045  -1.965219  0.380408
H    0.126201  -3.253447  1.118498
H    -3.286974  -0.767464  2.459769
H    -2.313710  0.106490  3.673398
H    -3.151616  -1.372950  4.110532
O    2.178054  0.692189  2.133604
H    1.242388  0.651281  0.245281
Ca    3.021532  0.710774  4.197125
