23
Energy: -30563.1936305 eV PBE+vdW (tier 2 basis)
N    0.548283  -0.940432  0.016194
C    0.266595  -0.365795  1.377894
C    1.594791  -0.300918  2.109046
O    2.486017  -1.149568  1.852537
H    0.756411  -0.171020  -0.632958
H    -0.344405  -1.319610  -0.328910
H    -0.170977  0.641774  1.290434
C    -0.744239  -1.282006  2.151361
C    -2.128918  -1.228800  1.464763
C    -0.831536  -0.922053  3.638714
C    -3.096840  -2.315234  1.939423
H    -0.347424  -2.316550  2.070579
H    -2.036873  -1.320185  0.366742
H    -2.562667  -0.230939  1.638123
H    0.106870  -1.084663  4.184339
H    -1.583882  -1.549740  4.127711
H    -1.154750  0.120500  3.781817
H    -4.031798  -2.254140  1.370026
H    -3.358568  -2.205735  2.998145
H    -2.685268  -3.323509  1.792166
O    1.851975  0.579851  3.028734
H    1.118285  1.207604  3.194350
Ca    2.419869  -2.486254  0.200437
