23
Energy: -30563.8658481 eV PBE+vdW (tier 2 basis)
N    -0.203175  1.197632  0.838879
C    0.158863  0.135760  1.871531
C    1.543599  -0.381816  1.520120
O    2.178922  -1.105957  2.353173
H    -1.212409  1.175773  0.632951
H    0.325235  1.014079  -0.032507
H    0.198074  0.625822  2.853507
C    -0.934638  -0.976022  1.903485
C    -0.842794  -1.843620  3.173995
C    -0.958182  -1.815448  0.622044
C    -0.902460  -1.081728  4.497258
H    -1.882526  -0.409543  1.981275
H    0.060341  -2.470838  3.131814
H    -1.689898  -2.542830  3.116961
H    -0.064831  -2.452054  0.539312
H    -1.040721  -1.223671  -0.302040
H    -1.824201  -2.487541  0.637675
H    -0.988716  -1.785331  5.333514
H    -1.775448  -0.415759  4.548841
H    0.001633  -0.485630  4.692174
O    2.055250  -0.109297  0.369885
H    0.033597  2.148456  1.153094
Ca    3.833485  -1.324436  0.944060
