23
Energy: -30563.7185624 eV PBE+vdW (tier 2 basis)
N    0.101259  0.747029  0.590947
C    -0.144829  0.246194  2.011593
C    1.223678  0.097300  2.671730
O    1.315608  -0.268094  3.886266
H    0.274490  -0.046283  -0.044557
H    0.932621  1.357083  0.543019
H    -0.677198  1.053478  2.537628
C    -1.045884  -1.031095  1.953073
C    -2.108510  -1.081916  3.074515
C    -0.229755  -2.319099  1.789702
C    -1.634821  -1.260958  4.515880
H    -1.633702  -0.893021  1.026642
H    -2.777102  -1.914248  2.808605
H    -2.730293  -0.175481  2.999212
H    -0.901920  -3.155652  1.565486
H    0.313275  -2.579485  2.707136
H    0.494018  -2.270945  0.959876
H    -2.507250  -1.369253  5.171039
H    -1.061032  -0.400378  4.882926
H    -1.021599  -2.161654  4.647786
O    2.285132  0.363810  1.992549
H    -0.718360  1.257201  0.233952
Ca    3.492173  -0.126533  3.799996
