23
Energy: -30562.1891486 eV PBE+vdW (tier 2 basis)
N    -0.665990  1.021148  0.480143
C    -0.805649  0.508683  1.841234
C    0.552287  0.980751  2.333200
O    0.755817  2.157861  2.797942
H    -0.399853  0.317337  -0.206345
H    -1.453193  1.571301  0.147916
H    -1.572133  1.087249  2.375831
C    -1.068120  -0.996275  2.031813
C    -2.397165  -1.389380  1.351788
C    -1.035198  -1.358070  3.523130
C    -2.659072  -2.896329  1.321360
H    -0.266927  -1.561047  1.501201
H    -2.405747  -1.007426  0.319744
H    -3.219009  -0.875768  1.878139
H    -0.113074  -1.035910  4.031556
H    -1.103175  -2.442169  3.662902
H    -1.885840  -0.904589  4.051046
H    -1.845496  -3.438057  0.819068
H    -3.581738  -3.105017  0.767438
H    -2.782698  -3.320577  2.325101
O    1.619321  0.241822  2.214737
H    1.379945  -0.670762  1.930880
Ca    1.583630  3.911462  3.351010
