23
Energy: -30563.3249513 eV PBE+vdW (tier 2 basis)
N    -0.232347  0.580388  0.371625
C    -0.301150  0.298352  1.861970
C    1.143599  0.551001  2.347691
O    1.277806  0.655009  3.651667
H    -0.584570  1.515604  0.131894
H    -0.737689  -0.109663  -0.197800
H    -0.978584  1.035473  2.310808
C    -0.847020  -1.136964  2.131181
C    -1.046934  -1.406324  3.650890
C    -0.060161  -2.242689  1.414417
C    0.094505  -2.124141  4.399357
H    -1.866423  -1.120362  1.711386
H    -1.936916  -2.040786  3.757188
H    -1.312405  -0.463108  4.151915
H    -0.076453  -2.142036  0.320192
H    -0.512406  -3.219796  1.625003
H    0.996072  -2.285253  1.712450
H    0.087469  -3.209460  4.236228
H    -0.027585  -2.025059  5.497801
H    1.107021  -1.827548  4.056669
O    2.049561  0.614151  1.535088
H    0.797571  0.551757  0.154187
Ca    1.692061  -0.000369  5.492268
