23
Energy: -30563.3676669 eV PBE+vdW (tier 2 basis)
N    0.070384  -0.262725  -0.146876
C    -0.018311  -0.050550  1.329799
C    1.412933  -0.001582  1.853892
O    2.317445  -0.618127  1.254415
H    0.390801  0.603653  -0.595872
H    -0.879040  -0.403614  -0.511069
H    -0.521931  0.900705  1.564337
C    -0.853603  -1.201373  2.005916
C    -0.509533  -2.633083  1.512566
C    -2.351710  -0.918663  1.808786
C    0.735448  -3.348834  2.076974
H    -0.637319  -1.158421  3.085582
H    -0.574263  -2.669515  0.397827
H    -1.365186  -3.272676  1.771823
H    -2.627120  0.078801  2.172668
H    -2.949066  -1.648643  2.368722
H    -2.662757  -0.994782  0.755581
H    1.700347  -2.804517  2.038618
H    0.858452  -4.352113  1.640362
H    0.613540  -3.511940  3.156499
O    1.718328  0.631371  2.952150
H    0.978744  1.139834  3.343837
Ca    1.693474  -2.088942  -0.236518
