23
Energy: -30563.8704872 eV PBE+vdW (tier 2 basis)
N    0.003793  0.484224  0.676716
C    0.207273  -0.462895  1.847252
C    1.585512  -1.085248  1.688741
O    2.175584  -1.608131  2.689128
H    -1.007333  0.541591  0.464533
H    0.506064  0.116285  -0.149023
H    0.179583  0.131910  2.769657
C    -0.942324  -1.523459  1.871067
C    -2.329945  -0.838685  1.756349
C    -0.843136  -2.405533  3.122458
C    -2.677137  0.201878  2.822397
H    -0.814928  -2.161416  0.978916
H    -3.065668  -1.655541  1.784604
H    -2.483061  -0.417657  0.741717
H    0.076146  -3.000467  3.151139
H    -1.685561  -3.107111  3.132421
H    -0.887408  -1.816552  4.047155
H    -2.632059  -0.215817  3.835143
H    -3.699766  0.566164  2.669467
H    -2.025851  1.090573  2.802108
O    2.137306  -1.106728  0.524242
H    0.350858  1.433852  0.863745
Ca    3.849057  -2.212239  1.421069
