23
Energy: -30563.7203451 eV PBE+vdW (tier 2 basis)
N    0.529620  0.257412  0.543928
C    0.194450  -0.049090  1.999304
C    1.500858  -0.415070  2.692274
O    2.523290  -0.738612  1.981402
H    -0.336199  0.407220  0.005961
H    1.120277  1.094572  0.436314
H    -0.195540  0.881427  2.434318
C    -0.906445  -1.167685  2.054620
C    -1.986797  -0.877975  3.121608
C    -0.324255  -2.584574  2.116536
C    -1.573027  -0.931193  4.591661
H    -1.432987  -1.075084  1.086568
H    -2.785720  -1.612988  2.942781
H    -2.437750  0.102077  2.898632
H    0.393590  -2.792283  1.309164
H    -1.133323  -3.317344  2.013581
H    0.162258  -2.786133  3.080921
H    -2.457670  -0.781203  5.221668
H    -0.851862  -0.147945  4.858483
H    -1.144165  -1.902257  4.871691
O    1.568780  -0.428227  3.962959
H    1.044881  -0.530269  0.121369
Ca    3.630735  -1.139776  3.870258
