23
Energy: -30563.923205 eV PBE+vdW (tier 2 basis)
N    0.514706  -0.287815  0.113139
C    -0.052557  0.137238  1.460044
C    1.078241  0.754133  2.275526
O    2.232522  0.942786  1.740842
H    -0.184292  -0.203651  -0.636249
H    1.346884  0.277215  -0.121510
H    -0.769447  0.948561  1.257279
C    -0.782665  -1.036944  2.152752
C    0.178023  -2.209209  2.441938
C    -2.027601  -1.440494  1.350721
C    -0.422211  -3.292291  3.342760
H    -1.111603  -0.616017  3.116137
H    1.098240  -1.823633  2.915748
H    0.497149  -2.693980  1.497783
H    -2.675738  -0.579915  1.136907
H    -2.628618  -2.157191  1.920425
H    -1.777112  -1.936819  0.399815
H    0.327798  -4.058258  3.570900
H    -1.268684  -3.800225  2.866079
H    -0.770639  -2.867699  4.293551
O    0.852905  1.118017  3.475150
H    0.808779  -1.277003  0.160773
Ca    2.883408  1.902219  3.646995
