23
Energy: -30563.8506249 eV PBE+vdW (tier 2 basis)
N    -0.137230  0.247753  0.408691
C    0.147798  -0.177007  1.839357
C    1.624910  -0.541543  1.906665
O    2.244007  -0.532371  3.019676
H    0.076712  1.238263  0.234206
H    -1.140858  0.087961  0.209273
H    -0.048069  0.686693  2.489345
C    -0.790186  -1.361116  2.254045
C    -2.262027  -1.033306  1.898096
C    -0.623640  -1.656057  3.749765
C    -3.254711  -2.129221  2.300904
H    -0.481522  -2.248637  1.672726
H    -2.389634  -0.904630  0.804029
H    -2.549294  -0.078247  2.369535
H    0.416083  -1.846235  4.036284
H    -1.199902  -2.548585  4.013672
H    -0.996527  -0.823300  4.362118
H    -2.961115  -3.108659  1.900160
H    -4.248516  -1.892133  1.903770
H    -3.350245  -2.213557  3.389055
O    2.234252  -0.893809  0.827293
H    0.434923  -0.321209  -0.237414
Ca    4.063960  -1.249358  2.043941
