30
Energy: -609300.179202 eV PBE+vdW (tier 2 basis)
C    0.485157  -0.796260  1.207992
C    -0.308315  -0.913345  2.463379
O    -0.375245  -2.058089  3.069869
H    0.489810  0.220271  0.802248
H    0.048933  -1.474813  0.459575
H    1.515992  -1.135229  1.376585
N    -0.957418  0.133253  2.928095
C    -1.945480  0.198157  4.005072
C    -2.567669  1.620843  3.797089
O    -1.887280  2.450875  3.183059
H    -0.897815  1.063410  2.466749
H    -2.697673  -0.589514  3.850791
C    -1.370034  0.066571  5.433867
C    -0.170905  0.955868  5.768161
C    1.177914  0.495779  5.265678
O    1.485437  -0.739797  5.155950
N    2.098149  1.409303  5.006552
H    -1.142664  -0.996493  5.651231
H    -2.178370  0.301049  6.139796
H    -0.066012  1.008497  6.865288
H    -0.352128  1.986918  5.432231
H    1.907152  2.402476  5.106271
H    3.048629  1.130985  4.770255
N    -3.771914  1.838241  4.336055
C    -4.476530  3.119977  4.244420
H    -4.276724  1.055071  4.740528
H    -3.788253  3.867762  3.842497
H    -4.817634  3.426981  5.239432
H    -5.341969  3.029678  3.576653
Pb    0.630859  -2.805422  4.873631
