30
Energy: -609299.984376 eV PBE+vdW (tier 2 basis)
C    0.317775  -0.404709  0.184300
C    0.145045  -0.244035  1.655660
O    1.201888  -0.095700  2.392062
H    -0.637156  -0.503517  -0.341143
H    0.931050  -1.296399  -0.008503
H    0.867628  0.456742  -0.218473
N    -1.060736  -0.268713  2.176373
C    -1.481320  -0.248956  3.575034
C    -2.757826  -1.159856  3.544996
O    -3.336478  -1.270192  2.462769
H    -1.885434  -0.525315  1.592546
H    -0.689810  -0.662089  4.214647
C    -1.921728  1.165642  4.016046
C    -0.839727  2.275296  4.038854
C    0.074881  2.202285  5.231876
O    1.156676  1.515608  5.239730
N    -0.264120  2.846245  6.336285
H    -2.400522  1.093940  5.002509
H    -2.708204  1.493204  3.322003
H    -1.353095  3.246360  4.044326
H    -0.232869  2.249210  3.124728
H    -1.094211  3.430686  6.382199
H    0.328756  2.799742  7.163276
N    -3.179722  -1.721255  4.689786
C    -2.503819  -1.755396  5.982402
H    -4.032134  -2.268842  4.586001
H    -3.155823  -2.270409  6.693603
H    -2.322523  -0.747741  6.380862
H    -1.556832  -2.311738  5.937132
Pb    2.624109  0.394071  3.952659
