30
Energy: -609301.178397 eV PBE+vdW (tier 2 basis)
C    0.343051  2.382688  1.226095
C    0.087496  1.044350  1.840368
O    1.066746  0.291121  2.116008
H    0.874094  2.234256  0.275243
H    1.014990  2.955827  1.878485
H    -0.566924  2.962671  1.040670
N    -1.193813  0.689962  2.059368
C    -1.714102  -0.612996  2.516470
C    -1.444498  -0.808927  4.021139
O    -0.299022  -1.098090  4.481560
H    -1.890692  1.383431  1.802625
H    -2.803275  -0.529428  2.404282
C    -1.233356  -1.762580  1.594025
C    -1.327839  -3.193591  2.162345
C    0.019002  -3.888838  2.211937
O    1.082569  -3.277973  2.536838
N    0.073758  -5.179945  1.918842
H    -0.203919  -1.564056  1.280832
H    -1.832497  -1.694652  0.678210
H    -2.038298  -3.797099  1.585227
H    -1.707761  -3.204626  3.197433
H    0.959634  -5.677933  1.978652
H    -0.744466  -5.701839  1.621488
N    -2.482618  -0.666266  4.834485
C    -2.433100  -0.778912  6.294146
H    -3.380729  -0.426358  4.422054
H    -2.437662  0.220401  6.748186
H    -1.522613  -1.307154  6.586084
H    -3.312719  -1.332940  6.638288
Pb    1.805705  -1.339336  3.576165
