30
Energy: -609300.542142 eV PBE+vdW (tier 2 basis)
C    0.213510  -0.345558  1.800839
C    -0.710725  0.613809  2.458298
O    -0.275331  1.692169  2.971172
H    -0.242679  -1.319023  1.598751
H    1.084544  -0.481180  2.458188
H    0.604698  0.090514  0.869174
N    -2.046324  0.372051  2.533443
C    -2.871694  -0.041055  1.401054
C    -2.566482  0.872492  0.195621
O    -2.120043  2.053120  0.376844
H    -2.515615  1.026405  3.161632
H    -2.649277  -1.085172  1.143007
C    -4.371988  0.041614  1.779206
C    -5.040012  1.440896  1.860583
C    -4.687405  2.309153  3.052677
O    -3.524076  2.801370  3.225514
N    -5.629381  2.554701  3.950648
H    -4.508320  -0.509864  2.720629
H    -4.931085  -0.521488  1.020890
H    -6.125180  1.278549  1.848356
H    -4.814010  2.031257  0.959135
H    -5.425536  3.146045  4.754746
H    -6.569981  2.181534  3.865365
N    -2.790563  0.448111  -1.038796
C    -3.307746  -0.842966  -1.501493
H    -2.591265  1.141603  -1.761869
H    -2.806930  -1.100364  -2.440371
H    -4.388516  -0.784056  -1.683888
H    -3.103256  -1.635475  -0.775894
Pb    -1.541681  3.486823  2.148187
