30
Energy: -609299.949013 eV PBE+vdW (tier 2 basis)
C    2.129020  0.032839  2.596810
C    0.902924  0.424564  3.368262
O    0.910365  0.986573  4.449439
H    1.930376  -0.671754  1.780974
H    2.862188  -0.399079  3.287396
H    2.583320  0.942090  2.177818
N    -0.339967  0.086462  2.776378
C    -1.523791  0.660145  3.378767
C    -2.472089  -0.403595  3.917402
O    -3.667800  -0.098437  4.302744
H    -0.344287  -0.167291  1.791921
H    -1.102266  1.148352  4.290760
C    -2.223316  1.754929  2.557245
C    -3.025736  1.268341  1.324688
C    -4.351786  1.969114  1.173623
O    -5.195355  2.008132  2.137001
N    -4.672614  2.539667  0.028270
H    -1.454161  2.471604  2.243586
H    -2.871360  2.339566  3.229201
H    -3.277507  0.198212  1.419226
H    -2.436592  1.365540  0.405059
H    -4.039855  2.543063  -0.766662
H    -5.580409  2.989083  -0.085574
N    -2.014506  -1.626027  4.054614
C    -2.692489  -2.762749  4.671605
H    -1.051949  -1.743712  3.725525
H    -2.121604  -3.089956  5.549375
H    -2.746572  -3.590449  3.954614
H    -3.699078  -2.471462  4.978293
Pb    -5.364093  1.306933  4.276527
