30
Energy: -609300.090326 eV PBE+vdW (tier 2 basis)
C    0.531451  -0.103663  0.109534
C    -0.397595  -0.607589  1.160139
O    -0.838629  -1.823423  1.066640
H    0.859522  0.923154  0.298458
H    0.026440  -0.148711  -0.865842
H    1.409285  -0.761036  0.047755
N    -0.758947  0.183984  2.144005
C    -1.733462  -0.022300  3.211657
C    -2.315322  1.425596  3.401947
O    -1.619127  2.364038  3.009635
H    -0.517048  1.199804  2.125140
H    -2.507945  -0.731615  2.885781
C    -1.057400  -0.452229  4.532592
C    -0.328185  -1.820646  4.552718
C    -1.258834  -2.997885  4.669361
O    -1.767985  -3.588207  3.652426
N    -1.598097  -3.425875  5.874018
H    -1.808864  -0.420225  5.334175
H    -0.312925  0.315550  4.785365
H    0.356901  -1.824638  5.411312
H    0.293917  -1.946853  3.657515
H    -1.205526  -3.017499  6.717712
H    -2.240261  -4.209222  5.981494
N    -3.500902  1.531440  4.016242
C    -4.140440  2.817101  4.308228
H    -4.011943  0.686572  4.249533
H    -4.394506  2.874374  5.372753
H    -5.051744  2.934080  3.709505
H    -3.438261  3.616144  4.057024
Pb    -1.662690  -3.797038  1.413427
