30
Energy: -609299.940468 eV PBE+vdW (tier 2 basis)
C    0.114796  -0.421373  -0.056970
C    -0.111714  -0.222933  1.401972
O    0.846524  -0.470910  2.224358
H    -0.774021  -0.208749  -0.660149
H    0.431809  -1.459185  -0.231850
H    0.939494  0.223926  -0.389910
N    -1.296637  0.185486  1.840278
C    -1.651452  0.397612  3.250243
C    -3.194969  0.279535  3.460185
O    -3.770789  1.116996  4.144687
H    -2.007120  0.396654  1.140198
H    -1.176370  -0.421777  3.814788
C    -1.132546  1.765258  3.740913
C    -1.161780  1.964394  5.258406
C    -0.365830  0.978425  6.064638
O    0.707468  0.427119  5.620722
N    -0.762864  0.686908  7.288879
H    -1.752480  2.555029  3.296562
H    -0.115494  1.934189  3.347716
H    -2.205311  1.967292  5.600459
H    -0.751950  2.961012  5.497383
H    -1.607263  1.096371  7.680533
H    -0.208051  0.076651  7.886082
N    -3.796930  -0.766553  2.850535
C    -5.235040  -1.016431  2.974638
H    -3.230651  -1.488264  2.416453
H    -5.595181  -1.505327  2.064138
H    -5.748505  -0.059599  3.105476
H    -5.451965  -1.655421  3.840741
Pb    2.142688  -0.013120  3.970216
