30
Energy: -609300.351412 eV PBE+vdW (tier 2 basis)
C    -0.104823  -0.841469  0.446462
C    0.006585  -0.323489  1.838041
O    1.114487  -0.485206  2.474229
H    -1.096622  -0.680183  0.012465
H    0.139874  -1.911698  0.429101
H    0.647171  -0.334618  -0.176122
N    -1.025128  0.318859  2.379220
C    -1.033143  0.889282  3.727539
C    -1.229847  -0.273006  4.723482
O    -0.193917  -0.746542  5.334879
H    -1.962000  0.234207  1.955427
H    -0.015308  1.256525  3.914978
C    -1.989395  2.113057  3.914393
C    -2.974648  2.492361  2.795362
C    -4.057951  1.455660  2.555447
O    -3.784670  0.234808  2.669984
N    -5.270193  1.877162  2.194460
H    -1.347529  2.986881  4.078181
H    -2.542970  1.976244  4.852766
H    -2.446777  2.653649  1.840690
H    -3.410596  3.467140  3.052145
H    -5.500146  2.860102  2.097356
H    -5.993759  1.194837  1.982247
N    -2.427551  -0.772427  4.885987
C    -2.780857  -1.899192  5.747650
H    -3.151582  -0.386761  4.245408
H    -3.059661  -2.762153  5.129242
H    -3.642664  -1.616381  6.362953
H    -1.937451  -2.157052  6.391878
Pb    1.880069  -0.936596  4.526148
