30
Energy: -609299.875428 eV PBE+vdW (tier 2 basis)
C    -0.209061  -1.228989  -0.960174
C    0.044346  -0.762430  0.429712
O    1.259206  -0.822044  0.888026
H    -1.246155  -1.093925  -1.279086
H    0.079816  -2.283747  -1.066105
H    0.448973  -0.661341  -1.634731
N    -0.895535  -0.270813  1.208596
C    -2.349440  -0.364826  1.156124
C    -2.772357  0.519116  2.367021
O    -1.941180  0.675896  3.277099
H    -0.655146  0.130726  2.141308
H    -2.739424  0.039783  0.214350
C    -2.854160  -1.833537  1.355690
C    -1.880384  -2.826249  2.040308
C    -1.310365  -2.446426  3.391199
O    -0.065341  -2.196417  3.552809
N    -2.107877  -2.411088  4.442259
H    -3.089469  -2.268632  0.375912
H    -3.805071  -1.800185  1.904302
H    -1.030059  -3.046876  1.384889
H    -2.421429  -3.777622  2.158234
H    -3.093838  -2.644691  4.375111
H    -1.747503  -2.139146  5.354724
N    -4.013273  1.017460  2.391393
C    -5.012409  1.005980  1.319294
H    -4.216549  1.580916  3.215183
H    -5.200273  -0.008176  0.946664
H    -4.719850  1.658148  0.485481
H    -5.953565  1.382105  1.730040
Pb    1.985351  -1.604254  2.829013
