30
Energy: -609300.123038 eV PBE+vdW (tier 2 basis)
C    0.703964  -1.079878  1.205571
C    -0.224652  0.093845  1.258452
O    0.165563  1.256745  1.039707
H    0.207671  -2.046835  1.339328
H    1.461205  -0.957065  1.992601
H    1.238525  -1.069005  0.247727
N    -1.537647  -0.162553  1.553487
C    -2.554885  0.837754  1.888206
C    -2.912734  1.781854  0.734039
O    -4.173298  1.986703  0.490837
H    -1.808054  -1.132450  1.681576
H    -3.475557  0.270327  2.076306
C    -2.181695  1.599867  3.190960
C    -3.261391  2.550574  3.771371
C    -3.263767  3.959103  3.223780
O    -4.122560  4.372701  2.368926
N    -2.348619  4.810024  3.656689
H    -1.231903  2.131534  3.046152
H    -1.994455  0.824272  3.944541
H    -3.094603  2.619780  4.855835
H    -4.267648  2.128252  3.646709
H    -1.676025  4.554380  4.374203
H    -2.334696  5.769969  3.317279
N    -1.962337  2.354152  0.048900
C    -2.169012  3.251130  -1.082226
H    -0.976769  2.063255  0.370997
H    -1.216200  3.372292  -1.605145
H    -2.496650  4.244635  -0.740400
H    -2.910154  2.837058  -1.776430
Pb    -5.628868  3.563000  0.906272
