30
Energy: -609299.921544 eV PBE+vdW (tier 2 basis)
C    0.066753  -1.374485  0.616456
C    -0.243201  -0.116622  1.351332
O    0.717222  0.683484  1.653593
H    0.570258  -1.129999  -0.328813
H    -0.822995  -1.976939  0.405623
H    0.772848  -1.971322  1.211124
N    -1.496597  0.161037  1.696511
C    -1.880353  1.313805  2.519391
C    -3.169410  1.140896  3.357061
O    -3.181778  1.697928  4.453068
H    -2.193450  -0.549479  1.483773
H    -1.103062  1.403291  3.290788
C    -1.940345  2.620343  1.691928
C    -2.037499  3.876392  2.569098
C    -0.956880  3.968431  3.613906
O    0.275408  3.730641  3.325514
N    -1.267508  4.339090  4.836039
H    -2.805741  2.599536  1.015523
H    -1.060950  2.681177  1.032772
H    -3.017129  3.939965  3.057144
H    -1.941067  4.771474  1.932891
H    -2.237706  4.456382  5.117669
H    -0.547964  4.448889  5.548260
N    -4.197861  0.437418  2.835877
C    -5.458614  0.256510  3.563192
H    -4.201223  0.189698  1.851482
H    -6.150123  1.087503  3.371930
H    -5.242126  0.216001  4.634481
H    -5.921739  -0.682746  3.246062
Pb    1.805834  2.530699  2.243328
