30
Energy: -609301.067434 eV PBE+vdW (tier 2 basis)
C    -0.335499  0.125467  -0.383642
C    -0.239369  -0.324500  1.038417
O    0.671558  -1.134166  1.375102
H    -1.144328  0.840931  -0.564743
H    -0.487274  -0.757221  -1.020603
H    0.621260  0.572902  -0.683928
N    -1.150773  0.151973  1.910830
C    -1.331518  -0.247060  3.319078
C    -0.167107  0.292227  4.171437
O    0.926400  -0.340144  4.310557
H    -1.843161  0.788473  1.526650
H    -2.231173  0.286076  3.647900
C    -1.611543  -1.765193  3.433605
C    -1.451798  -2.404564  4.828206
C    -0.462051  -3.554113  4.826662
O    0.605941  -3.524213  4.141585
N    -0.722869  -4.613041  5.579100
H    -0.984400  -2.301972  2.714919
H    -2.640025  -1.913115  3.082569
H    -2.418946  -2.745261  5.216286
H    -1.070066  -1.687008  5.572710
H    -1.579348  -4.695624  6.117530
H    -0.056598  -5.381422  5.624094
N    -0.315067  1.455758  4.791855
C    -1.465715  2.367912  4.791212
H    0.508102  1.754320  5.316607
H    -2.363802  1.881480  5.190931
H    -1.661546  2.761898  3.786469
H    -1.222585  3.211047  5.443579
Pb    1.982297  -1.981849  3.095026
