30
Energy: -609300.376307 eV PBE+vdW (tier 2 basis)
C    0.514106  0.903986  0.410704
C    0.165772  1.164420  1.836396
O    0.912844  1.997963  2.496497
H    -0.188426  0.219867  -0.074018
H    1.532241  0.495974  0.348827
H    0.525020  1.862530  -0.127570
N    -0.890300  0.569215  2.356263
C    -1.515061  0.855549  3.652086
C    -0.780212  0.112173  4.783523
O    0.408797  0.463488  5.111179
H    -1.539067  -0.001926  1.677566
H    -1.353239  1.922662  3.888144
C    -3.048619  0.665894  3.559903
C    -3.650243  -0.672601  3.056837
C    -3.637571  -0.856509  1.540488
O    -2.614770  -0.602885  0.867785
N    -4.745761  -1.332488  0.968835
H    -3.421850  1.476595  2.918768
H    -3.461978  0.881310  4.555828
H    -4.677940  -0.739167  3.436323
H    -3.125198  -1.558747  3.451395
H    -5.589215  -1.539592  1.490277
H    -4.748841  -1.509760  -0.032550
N    -1.358445  -0.865460  5.449236
C    -0.729655  -1.606149  6.550290
H    -2.307966  -1.117882  5.192161
H    0.141203  -2.162505  6.184095
H    -1.464247  -2.305346  6.956951
H    -0.410615  -0.912448  7.336520
Pb    1.831234  2.091836  4.472262
