30
Energy: -609299.737429 eV PBE+vdW (tier 2 basis)
C    0.042000  -0.465980  0.138443
C    -0.267124  0.242688  1.416649
O    0.392348  1.285355  1.776771
H    -0.048522  0.239269  -0.699595
H    -0.612776  -1.322972  -0.051248
H    1.080882  -0.825393  0.157338
N    -1.242487  -0.212471  2.195394
C    -1.733774  0.301631  3.491155
C    -2.898035  1.343454  3.403447
O    -3.176568  1.941276  4.435604
H    -1.702050  -1.058344  1.862525
H    -2.208497  -0.578457  3.949408
C    -0.629599  0.762052  4.476176
C    -0.372082  2.293712  4.549447
C    1.041313  2.595782  4.947026
O    1.999176  2.665640  4.085582
N    1.340962  2.783012  6.217472
H    0.291438  0.211584  4.243560
H    -0.936919  0.427552  5.473683
H    -1.079733  2.746076  5.252602
H    -0.549277  2.767076  3.576115
H    0.623327  2.768892  6.937362
H    2.300219  2.972840  6.503615
N    -3.534806  1.485206  2.223196
C    -4.724317  2.325932  2.071031
H    -3.278174  0.889830  1.444588
H    -4.674760  2.866369  1.119801
H    -4.753029  3.039483  2.898956
H    -5.637554  1.717573  2.096351
Pb    2.254248  2.494942  1.884864
