30
Energy: -609300.39685 eV PBE+vdW (tier 2 basis)
C    0.670282  -0.625628  0.394836
C    0.401743  0.222510  1.588418
O    1.390990  0.794521  2.181561
H    1.405086  -1.400309  0.650982
H    1.127553  0.000559  -0.385210
H    -0.235413  -1.091984  -0.005593
N    -0.850619  0.396274  2.002689
C    -1.213536  1.237062  3.148183
C    -0.792774  0.508701  4.441824
O    0.221701  0.966787  5.103692
H    -1.591509  -0.211043  1.635996
H    -0.559071  2.118669  3.091172
C    -2.647057  1.825941  3.065413
C    -3.901011  1.018099  3.454035
C    -4.061700  -0.300338  2.723305
O    -3.096567  -1.105404  2.684233
N    -5.232919  -0.578301  2.150902
H    -2.754304  2.202306  2.036899
H    -2.638265  2.719007  3.705235
H    -4.768609  1.673135  3.301012
H    -3.892397  0.786692  4.531213
H    -6.019853  0.060440  2.181470
H    -5.370578  -1.483841  1.708485
N    -1.434759  -0.573986  4.792706
C    -1.129096  -1.413006  5.949666
H    -2.160940  -0.896195  4.098319
H    -0.428435  -0.901619  6.613641
H    -0.701457  -2.366208  5.611972
H    -2.059708  -1.623645  6.488922
Pb    2.150220  1.555804  4.146022
