30
Energy: -609300.457674 eV PBE+vdW (tier 2 basis)
C    -0.673861  0.822016  0.521961
C    -0.796108  0.307778  1.910244
O    -0.410531  1.002939  2.901469
H    0.314783  1.290537  0.416902
H    -1.408065  1.625604  0.356698
H    -0.793559  0.045474  -0.239216
N    -1.318785  -0.921408  2.167469
C    -2.578888  -1.407064  1.620163
C    -3.690479  -0.357290  1.887637
O    -3.585751  0.528800  2.791896
H    -1.188142  -1.185212  3.145898
H    -2.489792  -1.516341  0.529166
C    -2.926226  -2.809757  2.202622
C    -2.423930  -3.181824  3.621277
C    -2.845862  -2.311617  4.788106
O    -2.324187  -1.167209  4.971944
N    -3.734243  -2.791485  5.648339
H    -2.490776  -3.561708  1.532432
H    -4.014581  -2.945919  2.150208
H    -1.323100  -3.213959  3.637855
H    -2.743053  -4.217045  3.799571
H    -4.110664  -3.730848  5.562604
H    -3.984937  -2.260477  6.479710
N    -4.767506  -0.405249  1.119956
C    -5.915130  0.501225  1.247446
H    -4.794398  -1.094617  0.372589
H    -6.693763  0.170051  0.555856
H    -5.620036  1.527306  0.996571
H    -6.303431  0.479160  2.271612
Pb    -2.115999  1.121141  4.515020
