30
Energy: -609300.988005 eV PBE+vdW (tier 2 basis)
C    -3.206948  0.035682  0.397571
C    -2.276046  -0.128845  1.556792
O    -1.185304  -0.751688  1.391452
H    -2.697863  0.606229  -0.391461
H    -4.148472  0.533529  0.651077
H    -3.423685  -0.956515  -0.021426
N    -2.664454  0.383339  2.738082
C    -2.064602  0.327759  4.085580
C    -0.762385  1.133031  4.205160
O    0.107167  1.197722  3.283967
H    -3.563643  0.856090  2.708273
H    -2.787307  0.891537  4.691246
C    -2.078177  -1.074825  4.761054
C    -1.349988  -2.302399  4.162252
C    0.137778  -2.366687  4.413193
O    0.979524  -1.711788  3.725392
N    0.577334  -3.134511  5.403107
H    -3.140219  -1.350282  4.815476
H    -1.759591  -0.934407  5.804496
H    -1.514287  -2.374598  3.081342
H    -1.820197  -3.189154  4.607707
H    -0.047771  -3.710021  5.958028
H    1.576677  -3.209017  5.582905
N    -0.562611  1.827288  5.320896
C    -1.457620  2.032041  6.465779
H    0.323150  2.333795  5.334042
H    -0.967792  2.728263  7.151925
H    -1.645050  1.097453  7.007519
H    -2.408655  2.481948  6.152627
Pb    1.021033  -0.356970  1.870947
