30
Energy: -609300.151433 eV PBE+vdW (tier 2 basis)
C    -0.885077  0.814630  -0.176670
C    -1.189335  -0.018751  1.030340
O    -0.853370  -1.206305  1.135216
H    -1.342658  1.809736  -0.154568
H    -1.210920  0.278301  -1.075899
H    0.205664  0.927234  -0.250985
N    -1.871764  0.590032  2.063123
C    -1.987150  -0.070913  3.357045
C    -3.112082  -1.137130  3.330209
O    -4.221157  -1.001759  3.989022
H    -2.159777  1.558656  1.968345
H    -1.050853  -0.638764  3.496165
C    -2.134066  0.937912  4.495042
C    -1.893574  0.300139  5.886969
C    -2.783737  0.871142  6.956952
O    -4.060011  0.782648  6.870859
N    -2.259326  1.466012  8.010825
H    -3.121757  1.422920  4.446854
H    -1.400931  1.739611  4.339493
H    -0.837292  0.386641  6.168328
H    -2.116489  -0.778980  5.864893
H    -1.254480  1.561274  8.128866
H    -2.861207  1.833774  8.746742
N    -2.878509  -2.179138  2.577441
C    -3.770201  -3.303707  2.324637
H    -1.981401  -2.088633  2.023470
H    -3.274240  -4.232148  2.634145
H    -3.972909  -3.364012  1.248063
H    -4.707954  -3.183237  2.871257
Pb    -5.576940  -0.140760  5.476879
