30
Energy: -609300.839475 eV PBE+vdW (tier 2 basis)
C    0.050609  -0.996169  -0.031031
C    -0.316252  0.098190  0.912236
O    0.555834  0.945918  1.269338
H    0.851759  -1.601059  0.415421
H    0.462774  -0.551486  -0.947123
H    -0.793332  -1.644386  -0.289234
N    -1.590834  0.168891  1.364572
C    -1.979475  1.272756  2.226496
C    -1.659359  0.976243  3.703833
O    -0.579128  1.441048  4.192421
H    -2.260442  -0.530083  1.053276
H    -1.259072  2.040661  1.951549
C    -3.308248  1.980033  1.955056
C    -3.272313  3.393891  2.596291
C    -2.160662  4.314159  2.101669
O    -0.922755  4.064844  2.254058
N    -2.522906  5.442669  1.503983
H    -4.183457  1.440809  2.344314
H    -3.444223  2.060308  0.867257
H    -3.144082  3.310513  3.687547
H    -4.245619  3.873957  2.440434
H    -3.496409  5.700649  1.377883
H    -1.813094  6.103245  1.193624
N    -2.488698  0.242219  4.425216
C    -2.277802  -0.155970  5.821100
H    -3.336923  -0.093869  3.974968
H    -2.175684  -1.246326  5.880931
H    -3.138418  0.158161  6.422707
H    -1.369606  0.320338  6.196157
Pb    0.899816  2.651845  2.877049
