30
Energy: -609299.958502 eV PBE+vdW (tier 2 basis)
C    0.300005  0.543427  0.011718
C    0.006488  0.270566  1.448072
O    0.948462  0.422088  2.301433
H    -0.565979  0.405105  -0.643589
H    1.108054  -0.127890  -0.313446
H    0.679953  1.568680  -0.092994
N    -1.218842  -0.134184  1.789410
C    -1.735171  -0.615545  3.088815
C    -1.894442  0.545268  4.073337
O    -0.882512  1.010392  4.726134
H    -1.877244  -0.214171  1.017383
H    -2.740643  -1.015207  2.879142
C    -0.977544  -1.823977  3.670402
C    -1.764734  -2.573206  4.760531
C    -3.099650  -3.142392  4.255712
O    -3.851460  -2.464989  3.540542
N    -3.405404  -4.388869  4.651858
H    0.010630  -1.548521  4.088138
H    -0.756287  -2.501986  2.833980
H    -2.000960  -1.906258  5.605615
H    -1.125229  -3.367522  5.166032
H    -2.798688  -4.947493  5.239405
H    -4.301215  -4.783455  4.378488
N    -3.074034  1.086604  4.289899
C    -4.379703  0.744024  3.705449
H    -3.061666  1.866033  4.951495
H    -4.502362  1.239271  2.733577
H    -5.152584  1.115923  4.384302
H    -4.486482  -0.342206  3.606032
Pb    1.318658  0.845313  4.452993
