26
Energy: -167649.039861 eV PBE+vdW (tier 2 basis)
N    -0.332520  1.589240  3.852600
C    -0.158749  0.122952  3.468697
C    1.352270  -0.149817  3.282184
O    1.713793  -1.320708  2.961977
H    -0.056130  2.222606  3.084895
H    -1.316307  1.794540  4.085823
H    -0.463537  -0.459458  4.353033
C    -1.004129  -0.248229  2.232480
C    -2.539826  -0.256282  2.445231
C    -3.130173  -1.540488  3.079046
C    -3.561847  -2.649673  2.110465
N    -4.966201  -2.446266  1.548207
H    -0.657324  -1.239805  1.908363
H    -0.744607  0.439837  1.412480
H    -2.990507  -0.066545  1.459516
H    -2.859112  0.610784  3.045036
H    -3.979443  -1.278118  3.728099
H    -2.402718  -2.003990  3.762419
H    -3.596746  -3.619624  2.620086
H    -2.898442  -2.747244  1.241713
H    -5.067281  -1.571311  1.013942
H    -5.219814  -3.217595  0.910274
H    -5.676087  -2.434015  2.296882
O    2.172792  0.800968  3.484569
H    0.242487  1.846406  4.671131
Cd    3.857161  -0.655168  3.052850
