26
Energy: -167649.259958 eV PBE+vdW (tier 2 basis)
N    -0.368938  1.751534  1.683882
C    -0.091058  0.708601  2.762643
C    1.442187  0.578300  2.924028
O    1.888460  -0.312270  3.706650
H    0.248660  2.573932  1.788197
H    -0.207817  1.376885  0.735555
H    -0.441766  1.156502  3.707594
C    -0.810455  -0.626312  2.502031
C    -2.351291  -0.555613  2.586980
C    -2.995788  -1.959745  2.512082
C    -4.522489  -1.882058  2.615379
N    -5.169088  -3.258909  2.568332
H    -0.429611  -1.317256  3.268048
H    -0.486728  -1.037807  1.532031
H    -2.761616  0.062413  1.770981
H    -2.643393  -0.072479  3.533100
H    -2.599924  -2.581677  3.330496
H    -2.710322  -2.447773  1.566794
H    -4.966047  -1.313960  1.787923
H    -4.849988  -1.428277  3.559307
H    -4.857120  -3.862510  3.344214
H    -6.196373  -3.184979  2.639314
H    -4.963584  -3.756695  1.688829
O    2.190895  1.400742  2.307181
H    -1.345249  2.080418  1.728412
Cd    3.968445  0.428995  3.340020
