26
Energy: -167648.295604 eV PBE+vdW (tier 2 basis)
N    0.612189  -0.616029  0.076306
C    0.448929  -0.145096  1.490647
C    1.797301  -0.225674  2.254432
O    2.753949  -0.944821  1.893076
H    -0.191185  -1.185027  -0.214548
H    0.668976  0.172246  -0.580747
H    0.173363  0.922160  1.455892
C    -0.619150  -0.983021  2.253893
C    -2.114134  -0.675106  1.977715
C    -2.669036  0.576192  2.700189
C    -4.130613  0.514134  3.166375
N    -5.181652  0.693242  2.074834
H    -0.434966  -0.883148  3.334119
H    -0.421933  -2.046515  2.037557
H    -2.650663  -1.566556  2.336720
H    -2.312784  -0.628989  0.894445
H    -2.498780  1.496713  2.119677
H    -2.115818  0.718430  3.642290
H    -4.326872  1.318733  3.885297
H    -4.364104  -0.439684  3.656545
H    -6.128198  0.673137  2.489025
H    -5.090685  1.600407  1.593089
H    -5.158122  -0.048114  1.360790
O    1.961729  0.435974  3.357330
H    1.227497  1.030353  3.617402
Cd    2.579104  -1.829369  -0.063995
