26
Energy: -167649.191715 eV PBE+vdW (tier 2 basis)
N    -0.321239  1.692029  0.621407
C    0.667806  0.854255  1.428164
C    1.805439  0.415676  0.475540
O    2.698681  -0.371547  0.905625
H    -0.928008  1.104812  0.026431
H    0.162978  2.353621  -0.008337
H    1.133829  1.549932  2.145165
C    -0.071320  -0.283846  2.165391
C    0.644675  -0.846709  3.412308
C    -0.189463  -1.982194  4.046807
C    0.446662  -2.739668  5.217341
N    0.259972  -2.074236  6.578544
H    -0.293720  -1.094767  1.454107
H    -1.047292  0.124456  2.478146
H    0.814804  -0.026308  4.128060
H    1.634897  -1.235462  3.132724
H    -0.377378  -2.750842  3.281992
H    -1.189752  -1.619263  4.335159
H    1.527309  -2.883450  5.094183
H    -0.015028  -3.728533  5.321752
H    0.681590  -2.652247  7.322968
H    -0.737971  -1.967409  6.815523
H    0.696780  -1.144400  6.639350
O    1.818959  0.901631  -0.701606
H    -0.937158  2.237207  1.245142
Cd    3.750949  -0.193736  -1.088886
