26
Energy: -167649.276216 eV PBE+vdW (tier 2 basis)
N    1.050066  -0.075731  0.274127
C    0.094988  0.075898  1.454719
C    0.916941  0.543959  2.680153
O    2.144924  0.831387  2.515802
H    1.645401  -0.914324  0.366423
H    0.532772  -0.155930  -0.614125
H    -0.561688  0.924890  1.202467
C    -0.731830  -1.195845  1.715452
C    -1.781355  -1.547942  0.635221
C    -2.559506  -2.823192  1.035004
C    -3.513770  -3.417383  -0.007196
N    -4.900503  -2.779966  -0.039142
H    -1.237869  -1.027435  2.677129
H    -0.049106  -2.046288  1.879111
H    -1.298597  -1.730707  -0.339416
H    -2.461319  -0.691454  0.499931
H    -3.090179  -2.667159  1.988202
H    -1.835498  -3.625958  1.241559
H    -3.695483  -4.476111  0.212550
H    -3.123686  -3.349969  -1.030569
H    -5.380627  -2.867729  0.869318
H    -4.884588  -1.781645  -0.288776
H    -5.496990  -3.252890  -0.737029
O    0.319844  0.663455  3.790745
H    1.688063  0.733742  0.197016
Cd    2.211597  1.438330  4.706324
