26
Energy: -167649.079614 eV PBE+vdW (tier 2 basis)
N    -0.204906  0.139514  0.221263
C    0.001628  -0.017442  1.725507
C    0.830611  1.190790  2.220311
O    1.164816  2.077846  1.370522
H    -0.485392  1.100738  -0.034108
H    -0.935726  -0.505203  -0.119275
H    -0.996341  0.087237  2.178745
C    0.628675  -1.399537  2.028698
C    0.466042  -1.947544  3.466356
C    -0.919395  -2.550003  3.774639
C    -1.095355  -3.144703  5.177574
N    -0.497173  -4.538493  5.347415
H    1.698099  -1.361417  1.773419
H    0.176757  -2.118016  1.323964
H    0.712150  -1.166523  4.201278
H    1.250166  -2.712159  3.573380
H    -1.191730  -3.304334  3.017927
H    -1.698816  -1.775474  3.704395
H    -2.159754  -3.260419  5.413143
H    -0.641235  -2.522412  5.958936
H    -0.919657  -5.218748  4.697495
H    -0.673140  -4.891080  6.301900
H    0.522271  -4.562954  5.205263
O    1.126014  1.267537  3.449430
H    0.658355  -0.067376  -0.307632
Cd    2.144037  3.244173  3.035454
