26
Energy: -167648.222016 eV PBE+vdW (tier 2 basis)
N    -0.165822  -0.678677  -0.386439
C    -0.175189  -0.101408  0.895500
C    1.366715  0.140432  1.365743
O    1.605776  0.700925  2.451835
H    -0.331583  -1.678228  -0.496532
H    -0.363565  -0.111915  -1.209992
H    -0.541569  0.938771  0.840517
C    -0.938338  -0.900461  1.979651
C    -2.460972  -0.901465  1.714499
C    -3.249548  -1.671827  2.796364
C    -4.750412  -1.651412  2.488087
N    -5.562124  -2.407386  3.530321
H    -0.717278  -0.441346  2.954207
H    -0.549917  -1.931244  2.017175
H    -2.667413  -1.347248  0.729912
H    -2.821104  0.138202  1.669248
H    -3.066879  -1.219665  3.784172
H    -2.892807  -2.713001  2.844796
H    -4.980068  -2.126907  1.526267
H    -5.155007  -0.631622  2.473112
H    -5.456437  -2.004030  4.473282
H    -6.568517  -2.381350  3.302242
H    -5.291911  -3.400831  3.587861
O    2.321583  -0.215933  0.574188
H    1.958119  -0.621913  -0.255619
Cd    3.627133  1.293028  3.169588
