26
Energy: -167648.341677 eV PBE+vdW (tier 2 basis)
N    0.483624  0.585822  0.358683
C    0.179738  -0.038790  1.689089
C    1.482798  -0.319050  2.487834
O    2.628955  -0.275426  1.991231
H    0.007275  0.082147  -0.397752
H    0.154869  1.558105  0.318405
H    -0.368335  0.714251  2.280869
C    -0.667111  -1.339979  1.557415
C    -2.188582  -1.125585  1.364360
C    -2.936897  -2.479160  1.430332
C    -4.451376  -2.441585  1.675111
N    -5.309765  -2.258326  0.426415
H    -0.516116  -1.937602  2.469051
H    -0.242972  -1.957703  0.747491
H    -2.390581  -0.605950  0.413819
H    -2.558128  -0.467774  2.166830
H    -2.542339  -3.050518  2.284878
H    -2.707463  -3.099704  0.549319
H    -4.749300  -1.645530  2.369029
H    -4.779545  -3.396922  2.101735
H    -6.311848  -2.299346  0.674126
H    -5.158450  -1.356445  -0.045486
H    -5.145583  -3.006845  -0.263785
O    1.415747  -0.635913  3.743283
H    0.522064  -0.627127  4.145299
Cd    2.771626  0.541806  0.005336
