26
Energy: -167649.402759 eV PBE+vdW (tier 2 basis)
N    2.201489  -2.563284  0.523866
C    1.165934  -1.470011  0.773025
C    1.769698  -0.464891  1.782367
O    1.042852  0.470201  2.229801
H    3.154657  -2.171665  0.439299
H    2.228364  -3.251569  1.293390
H    1.085657  -0.913862  -0.175906
C    -0.194595  -2.094212  1.150244
C    -1.415435  -1.185515  0.900095
C    -2.744569  -1.943193  1.123143
C    -3.953443  -1.053446  0.820075
N    -5.268084  -1.798283  1.004401
H    -0.167579  -2.437703  2.196080
H    -0.302076  -2.999962  0.529435
H    -1.379949  -0.808373  -0.133992
H    -1.371937  -0.306780  1.559592
H    -2.797798  -2.302010  2.163248
H    -2.772004  -2.832573  0.473185
H    -3.953819  -0.696341  -0.217487
H    -4.004956  -0.181710  1.484199
H    -6.071745  -1.185019  0.796183
H    -5.342911  -2.614696  0.378779
H    -5.390767  -2.138863  1.969909
O    3.000294  -0.590953  2.085602
H    1.989110  -3.080271  -0.344046
Cd    2.840611  1.281983  3.331517
