26
Energy: -167648.201621 eV PBE+vdW (tier 2 basis)
N    -0.410251  -1.924648  -0.201268
C    -0.205149  -0.792891  0.607004
C    1.401535  -0.542723  0.746927
O    1.827435  0.439289  1.383374
H    -0.641393  -2.820968  0.225076
H    -0.689481  -1.821417  -1.175640
H    -0.515295  0.120145  0.069599
C    -0.838753  -0.856212  2.017432
C    -2.385847  -0.857663  1.980971
C    -2.969310  -0.950504  3.407851
C    -4.466216  -1.255413  3.520168
N    -5.380735  -0.054845  3.291449
H    -0.468621  0.007330  2.589354
H    -0.477170  -1.757785  2.538572
H    -2.742497  -1.714387  1.389448
H    -2.735332  0.050992  1.464963
H    -2.721622  -0.051223  3.994494
H    -2.480332  -1.781890  3.938617
H    -4.702925  -1.605032  4.532353
H    -4.794287  -2.026240  2.811440
H    -5.302257  0.337598  2.343293
H    -6.368654  -0.325212  3.422173
H    -5.188490  0.704082  3.962317
O    2.209807  -1.356240  0.155694
H    1.707336  -2.066872  -0.322036
Cd    3.968286  1.028449  1.544267
