26
Energy: -167648.453104 eV PBE+vdW (tier 2 basis)
N    0.804221  0.364564  -0.099090
C    0.421031  -0.013957  1.301982
C    1.655415  0.010747  2.244468
O    2.837926  0.058478  1.842720
H    0.432053  -0.311967  -0.775198
H    0.416227  1.280022  -0.357538
H    -0.254833  0.773702  1.676502
C    -0.277904  -1.403934  1.366921
C    -1.746820  -1.429127  0.880685
C    -2.323384  -2.861568  0.963805
C    -3.716214  -3.091978  0.360763
N    -4.879894  -2.804278  1.305467
H    -0.238479  -1.759605  2.407527
H    0.331648  -2.128475  0.799847
H    -1.817545  -1.077039  -0.161463
H    -2.337231  -0.724089  1.487402
H    -2.296563  -3.230593  2.002118
H    -1.659860  -3.540848  0.407396
H    -3.833085  -4.146693  0.085124
H    -3.896977  -2.489078  -0.537957
H    -5.778188  -3.018231  0.842339
H    -4.837883  -3.391229  2.152674
H    -4.929047  -1.821600  1.607873
O    1.489400  -0.042389  3.529418
H    0.562149  -0.034758  3.845975
Cd    3.110111  0.448667  -0.257848
