26
Energy: -167649.273672 eV PBE+vdW (tier 2 basis)
N    -0.423079  -0.630051  -0.135389
C    0.028481  0.074482  1.140132
C    1.557191  0.299079  1.066894
O    2.160304  0.700669  2.105251
H    -0.199439  -1.636542  -0.129747
H    -1.443920  -0.537998  -0.259926
H    -0.378058  1.097597  1.058987
C    -0.548598  -0.551274  2.420183
C    -0.171987  -2.000813  2.784099
C    -0.890249  -2.431951  4.086166
C    -0.573710  -3.877215  4.480293
N    -1.298678  -4.285404  5.755385
H    -1.644394  -0.453972  2.345588
H    -0.253186  0.128608  3.232968
H    0.917604  -2.088203  2.916659
H    -0.454735  -2.700318  1.979401
H    -1.977854  -2.317213  3.952640
H    -0.595193  -1.751791  4.900808
H    0.494283  -4.030526  4.679222
H    -0.888532  -4.596223  3.713492
H    -1.076972  -5.260773  6.010567
H    -1.034314  -3.696259  6.559628
H    -2.323727  -4.226400  5.656468
O    2.129271  0.171341  -0.063418
H    0.037998  -0.225055  -0.967699
Cd    4.014492  1.008203  0.873350
