26
Energy: -167649.133690 eV PBE+vdW (tier 2 basis)
N    0.256722  2.166651  0.952406
C    0.838857  0.816841  1.365501
C    1.139492  0.014833  0.078076
O    1.522240  -1.187305  0.175751
H    0.765019  2.572123  0.148475
H    0.303292  2.841269  1.732662
H    1.824585  1.041482  1.805805
C    -0.077105  0.129403  2.402603
C    0.633862  -0.816359  3.396626
C    -0.346994  -1.258444  4.508588
C    0.257881  -1.854231  5.783526
N    0.616101  -3.335375  5.694405
H    -0.901841  -0.386452  1.887579
H    -0.543645  0.938609  2.989598
H    1.481085  -0.280212  3.852957
H    1.052191  -1.680858  2.859894
H    -1.123109  -1.928796  4.105647
H    -0.896323  -0.372516  4.863254
H    -0.464964  -1.788408  6.605478
H    1.173611  -1.338293  6.098728
H    1.346195  -3.533327  4.996973
H    -0.206390  -3.912229  5.462130
H    0.970339  -3.674584  6.603142
O    1.030470  0.619013  -1.038724
H    -0.734253  2.090202  0.670962
Cd    1.763682  -1.233039  -2.079043
