26
Energy: -167649.064221 eV PBE+vdW (tier 2 basis)
N    -0.486714  1.276049  3.985807
C    -0.173959  -0.027810  3.258437
C    1.341271  -0.054312  2.949642
O    1.825907  -1.114600  2.452975
H    0.006089  1.351629  4.890177
H    -0.204737  2.097323  3.425574
H    -0.362443  -0.839407  3.977428
C    -1.027989  -0.184360  1.982188
C    -2.530030  -0.526863  2.151311
C    -2.829926  -1.985209  2.575275
C    -4.066899  -2.640030  1.948740
N    -5.409327  -2.160834  2.494819
H    -0.550833  -0.976593  1.388027
H    -0.931059  0.735842  1.383772
H    -2.964026  -0.337765  1.157332
H    -3.033352  0.193012  2.818659
H    -2.862447  -2.097196  3.670422
H    -2.003650  -2.633752  2.243930
H    -4.053041  -3.721342  2.131067
H    -4.109937  -2.480302  0.863724
H    -5.497768  -2.329058  3.508153
H    -5.582092  -1.160198  2.324113
H    -6.181726  -2.675131  2.040867
O    2.038632  0.976849  3.207266
H    -1.496822  1.357933  4.176331
Cd    3.852877  -0.162874  2.437961
