26
Energy: -167649.446398 eV PBE+vdW (tier 2 basis)
N    0.959364  0.103186  -0.182471
C    0.303410  0.124776  1.195297
C    1.391850  0.458842  2.242769
O    2.549961  0.789058  1.833328
H    1.516367  -0.753302  -0.330684
H    0.251371  0.149558  -0.930767
H    -0.369560  0.998558  1.191152
C    -0.487155  -1.159939  1.499855
C    -1.738073  -1.370058  0.618247
C    -2.589137  -2.567562  1.102295
C    -3.831010  -2.762130  0.226251
N    -4.696372  -3.916957  0.709618
H    -0.788130  -1.074638  2.554138
H    0.186571  -2.030640  1.444288
H    -1.453057  -1.544221  -0.432659
H    -2.354493  -0.457182  0.635914
H    -2.894644  -2.393422  2.146125
H    -1.978337  -3.484093  1.092117
H    -3.572275  -2.996071  -0.814104
H    -4.481203  -1.878192  0.229179
H    -4.188914  -4.814724  0.702359
H    -5.044250  -3.767570  1.668916
H    -5.524432  -4.034248  0.104340
O    1.069849  0.438963  3.467697
H    1.603771  0.902041  -0.305190
Cd    3.122530  1.153964  4.002991
