26
Energy: -167648.252227 eV PBE+vdW (tier 2 basis)
N    0.734328  -0.068147  0.263933
C    0.538601  -0.234662  1.741815
C    1.769050  -0.929274  2.387797
O    2.638052  -1.550697  1.739169
H    -0.112152  -0.337360  -0.248651
H    0.935835  0.908557  0.016994
H    0.504175  0.775637  2.182730
C    -0.756431  -1.037587  2.093579
C    -2.046712  -0.243653  2.420941
C    -2.793748  0.420974  1.246114
C    -4.307854  0.603739  1.432833
N    -4.723030  1.667070  2.444825
H    -0.540709  -1.665205  2.970069
H    -0.946417  -1.761994  1.283168
H    -1.826572  0.488099  3.214535
H    -2.710243  -0.991878  2.882608
H    -2.733351  -0.229174  0.357585
H    -2.334920  1.379839  0.954503
H    -4.788128  -0.326655  1.761855
H    -4.772374  0.907517  0.487126
H    -5.753596  1.730922  2.486988
H    -4.403536  1.462454  3.402280
H    -4.380297  2.605614  2.190581
O    1.920215  -0.913207  3.675253
H    1.258088  -0.402144  4.185964
Cd    2.534006  -1.376150  -0.403319
