26
Energy: -167648.581656 eV PBE+vdW (tier 2 basis)
N    0.041472  0.524246  0.244800
C    -0.000715  0.158940  1.700466
C    1.430225  0.054350  2.296458
O    2.475405  0.069884  1.611230
H    -0.477500  -0.159847  -0.317762
H    -0.400627  1.436029  0.077168
H    -0.472788  1.005002  2.228943
C    -0.806805  -1.148286  1.959624
C    -2.339155  -0.984885  1.847207
C    -3.089036  -2.276050  2.251580
C    -4.608968  -2.083010  2.193966
N    -5.362641  -3.335424  2.617103
H    -0.558317  -1.506816  2.969948
H    -0.435934  -1.935087  1.280944
H    -2.627134  -0.704417  0.821176
H    -2.661568  -0.156843  2.498025
H    -2.793111  -2.562650  3.273520
H    -2.791790  -3.102974  1.587374
H    -4.959308  -1.848988  1.180834
H    -4.948745  -1.286356  2.867750
H    -6.382888  -3.182029  2.572844
H    -5.154144  -4.142438  2.009567
H    -5.143828  -3.615000  3.585600
O    1.589408  -0.063880  3.578003
H    0.773495  -0.031662  4.119634
Cd    2.239079  0.580521  -0.467000
