26
Energy: -167649.042983 eV PBE+vdW (tier 2 basis)
N    0.262311  0.921279  0.315386
C    -0.003898  0.161389  1.611777
C    1.270915  0.242553  2.486324
O    1.290619  -0.401615  3.576675
H    0.723082  1.828569  0.496847
H    0.884411  0.394569  -0.318492
H    -0.765049  0.748373  2.152195
C    -0.495387  -1.275978  1.366757
C    -1.904469  -1.405933  0.742569
C    -2.288067  -2.895202  0.580870
C    -3.577545  -3.204831  -0.188241
N    -4.850119  -3.148661  0.652986
H    -0.483915  -1.764319  2.351983
H    0.246795  -1.815426  0.754847
H    -1.939991  -0.932189  -0.252711
H    -2.631101  -0.872928  1.376699
H    -2.302060  -3.397885  1.561504
H    -1.493302  -3.402481  0.013140
H    -3.543939  -4.228240  -0.580313
H    -3.742038  -2.527082  -1.035391
H    -5.036991  -2.216895  1.048387
H    -5.671263  -3.399963  0.079307
H    -4.818717  -3.819716  1.435551
O    2.227952  0.985318  2.099635
H    -0.615085  1.108282  -0.192831
Cd    3.310850  0.453014  4.027537
