26
Energy: -167648.193851 eV PBE+vdW (tier 2 basis)
N    1.338080  -1.014202  -0.485391
C    0.998990  -0.506715  0.780416
C    2.191116  -0.882553  1.830183
O    2.127886  -0.486978  3.009139
H    0.914666  -1.878624  -0.819121
H    1.705366  -0.398935  -1.209637
H    1.065439  0.595361  0.777856
C    -0.359505  -0.979110  1.349738
C    -1.565362  -0.375376  0.590693
C    -2.895242  -0.769193  1.270078
C    -4.151590  -0.026075  0.805223
N    -4.749784  -0.540855  -0.501497
H    -0.399051  -0.677932  2.406921
H    -0.402482  -2.080336  1.334061
H    -1.544494  -0.703057  -0.460284
H    -1.473025  0.722095  0.582896
H    -2.826595  -0.543019  2.345325
H    -3.056535  -1.858209  1.217069
H    -3.977319  1.047227  0.657632
H    -4.950779  -0.139542  1.547415
H    -5.003730  -1.538211  -0.437849
H    -5.616063  -0.026448  -0.727302
H    -4.118724  -0.428422  -1.306606
O    3.208666  -1.551757  1.403646
H    3.111997  -1.767274  0.439923
Cd    3.723510  -0.734911  4.540712
