26
Energy: -167648.060248 eV PBE+vdW (tier 2 basis)
N    0.427647  -0.275248  0.268182
C    0.021029  -0.187721  1.609558
C    1.336868  -0.257437  2.575733
O    1.198394  -0.179387  3.810137
H    0.398164  -1.166280  -0.223807
H    0.491592  0.555047  -0.317584
H    -0.344522  0.830471  1.828496
C    -0.992619  -1.256936  2.084392
C    -2.442330  -1.084928  1.571334
C    -2.717384  -1.500579  0.113276
C    -4.154327  -1.927315  -0.211492
N    -5.175749  -0.794054  -0.244048
H    -1.011839  -1.206393  3.182661
H    -0.616144  -2.260859  1.828125
H    -2.779336  -0.054823  1.768388
H    -3.039276  -1.729068  2.238977
H    -2.124733  -2.397775  -0.127633
H    -2.389574  -0.724467  -0.598211
H    -4.536892  -2.655388  0.515074
H    -4.199377  -2.385778  -1.206472
H    -4.939408  -0.079131  -0.947936
H    -6.107607  -1.161848  -0.495533
H    -5.280196  -0.320295  0.664099
O    2.506662  -0.356749  2.038651
H    2.447083  -0.392908  1.050374
Cd    2.844059  -0.126194  5.315278
