26
Energy: -167648.110733 eV PBE+vdW (tier 2 basis)
N    2.207619  0.412477  0.030277
C    1.716026  0.221469  1.326564
C    2.173781  -1.275740  1.801601
O    2.980964  -1.347690  2.739057
H    1.678687  0.155369  -0.801483
H    3.098557  0.878978  -0.133467
H    2.252895  0.868646  2.030716
C    0.176784  0.417944  1.462904
C    -0.364501  0.317887  2.901785
C    -1.617221  1.182096  3.193897
C    -2.911513  0.710791  2.526644
N    -4.099122  1.543625  2.992476
H    -0.355333  -0.256358  0.771814
H    0.028022  1.436800  1.071586
H    0.405653  0.675295  3.602132
H    -0.564842  -0.729766  3.174221
H    -1.408651  2.226964  2.913441
H    -1.755213  1.175681  4.286292
H    -3.155120  -0.328066  2.783534
H    -2.893537  0.804332  1.433649
H    -4.975546  1.231466  2.545629
H    -4.239539  1.475679  4.012480
H    -3.984610  2.543994  2.767795
O    1.774200  -2.352479  1.189870
H    1.151789  -2.216487  0.444263
Cd    4.146620  -3.158682  3.426223
