28
Energy: -35056.6338551 eV PBE+vdW (tier 2 basis)
N    0.828252  0.040829  0.675023
C    0.576381  -1.142311  1.480964
C    1.923935  -1.837818  1.269568
O    2.961054  -1.528816  1.942435
H    0.464585  0.021103  -0.274613
H    0.673625  0.936801  1.126980
H    0.536717  -0.856107  2.541494
C    -0.670373  -1.976062  1.116491
C    -1.968014  -1.204414  1.432278
C    -3.272286  -1.800162  0.883862
N    -3.724024  -2.985617  1.627161
C    -4.742967  -3.783722  1.229067
N    -5.073332  -4.845095  1.972615
N    -5.391175  -3.543430  0.085692
H    -0.643702  -2.934713  1.657599
H    -0.657406  -2.213121  0.035429
H    -1.898251  -0.195264  1.001615
H    -2.058318  -1.053867  2.520296
H    -3.141756  -2.084849  -0.170943
H    -4.041131  -1.011426  0.926983
H    -3.537516  -2.989273  2.626348
H    -4.486366  -5.170212  2.731498
H    -6.061036  -4.211122  -0.282893
H    -5.373726  -2.633322  -0.358264
H    -5.933428  -5.357870  1.809126
O    2.117845  -2.707944  0.315646
H    1.287701  -2.957564  -0.143937
Ca    4.942251  -1.257230  2.433618
