28
Energy: -35057.3009561 eV PBE+vdW (tier 2 basis)
N    0.876202  -0.875106  -0.256108
C    0.238963  -0.068385  0.842804
C    1.323709  0.197807  1.901277
O    2.513881  -0.103375  1.661951
H    0.577167  -1.852823  -0.147263
H    0.466727  -0.587085  -1.151172
H    0.014945  0.929238  0.423022
C    -1.067317  -0.672370  1.414894
C    -2.268759  -0.646924  0.448600
C    -3.557754  -1.130046  1.143407
N    -4.707947  -1.036852  0.243006
C    -5.851402  -1.753612  0.353844
N    -6.752620  -1.694447  -0.630013
N    -6.067925  -2.538295  1.414711
H    -1.347695  -0.105372  2.317971
H    -0.864308  -1.698144  1.764922
H    -2.082443  -1.278474  -0.433156
H    -2.416804  0.383344  0.085444
H    -3.730902  -0.532491  2.055036
H    -3.445699  -2.181486  1.445345
H    -4.753692  -0.229785  -0.372725
H    -6.524756  -1.321073  -1.544737
H    -6.845607  -3.191413  1.422930
H    -5.616840  -2.369237  2.305768
H    -7.700324  -2.034081  -0.498975
O    1.072303  0.779446  3.032936
H    0.133535  1.012874  3.184564
Ca    3.399362  -0.830832  -0.129284
