28
Energy: -35057.4597211 eV PBE+vdW (tier 2 basis)
N    0.122537  0.763629  0.348013
C    -0.106812  0.371978  1.786650
C    1.272923  0.234295  2.424924
O    2.286669  0.746515  1.893121
H    0.082661  -0.093043  -0.221455
H    -0.693864  1.301208  0.033425
H    -0.543468  1.256316  2.287682
C    -1.091780  -0.815081  1.969961
C    -1.763023  -0.881820  3.359624
C    -3.031494  -1.746702  3.444068
N    -2.755394  -3.190427  3.445432
C    -3.714099  -4.140892  3.314518
N    -3.360171  -5.429808  3.315733
N    -4.994727  -3.800695  3.145081
H    -0.586741  -1.759568  1.716872
H    -1.878905  -0.667589  1.213814
H    -2.080262  0.130821  3.652030
H    -1.047523  -1.200236  4.130717
H    -3.694042  -1.525241  2.594247
H    -3.561777  -1.460034  4.367074
H    -1.920957  -3.489667  3.942987
H    -2.392985  -5.720004  3.233105
H    -5.691331  -4.500967  2.909672
H    -5.348829  -2.891989  3.418751
H    -4.051600  -6.167780  3.401505
O    1.317175  -0.396607  3.559241
H    2.221149  -0.392703  3.952222
Ca    2.330668  1.835091  0.019986
