28
Energy: -35057.1574589 eV PBE+vdW (tier 2 basis)
N    1.348836  0.730896  2.133640
C    1.431512  -0.770116  2.184297
C    1.606363  -1.257122  0.735586
O    1.932283  -0.441195  -0.154887
H    0.356334  0.999656  2.139793
H    1.716268  1.106594  3.014771
H    2.397135  -1.014370  2.665130
C    0.307399  -1.477183  2.982376
C    0.283596  -1.098038  4.479381
C    -0.441351  -2.082437  5.414775
N    -1.902065  -2.084430  5.259439
C    -2.713647  -3.041585  5.781613
N    -4.028644  -2.969943  5.558728
N    -2.207373  -4.065276  6.473740
H    0.480232  -2.564830  2.915957
H    -0.665403  -1.292932  2.500465
H    -0.131826  -0.087490  4.621203
H    1.316784  -1.053223  4.858268
H    -0.164166  -1.816394  6.448081
H    -0.077247  -3.102832  5.224801
H    -2.345172  -1.178321  5.131068
H    -4.684565  -3.548044  6.074894
H    -2.792655  -4.852821  6.736830
H    -1.301816  -4.013354  6.925385
H    -4.422108  -2.345920  4.863852
O    1.486038  -2.501770  0.391799
H    1.231410  -3.107619  1.117656
Ca    2.372846  1.637098  0.010359
