28
Energy: -35057.0963363 eV PBE+vdW (tier 2 basis)
N    2.616993  -0.598368  0.947877
C    1.282733  -1.098169  1.438696
C    0.223169  -0.175684  0.834711
O    0.531862  0.987226  0.495502
H    3.314069  -0.764938  1.683436
H    2.925989  -1.203318  0.176435
H    1.118123  -2.128631  1.086139
C    1.234662  -1.053857  2.997261
C    0.038611  -1.697951  3.732874
C    0.146794  -3.217472  3.965138
N    -0.926410  -3.653400  4.862559
C    -1.332068  -4.930130  5.056191
N    -2.441739  -5.159828  5.761159
N    -0.653541  -5.950022  4.516507
H    1.302316  0.000133  3.307023
H    2.161798  -1.537628  3.345013
H    -0.923672  -1.450673  3.258885
H    0.000845  -1.206911  4.717290
H    1.134958  -3.445078  4.401119
H    0.056615  -3.781357  3.023868
H    -1.265054  -2.975230  5.539760
H    -2.662866  -6.086626  6.112315
H    -1.033955  -6.891476  4.545020
H    0.334670  -5.876561  4.306224
H    -3.104688  -4.422586  5.975564
O    -1.017723  -0.538616  0.687157
H    -1.195290  -1.477266  0.897859
Ca    2.488797  1.772419  0.124415
