28
Energy: -35057.1331989 eV PBE+vdW (tier 2 basis)
N    0.324033  -0.290703  -0.834226
C    -0.223137  0.211553  0.472806
C    0.971289  0.454739  1.401302
O    2.133142  0.458917  0.938603
H    0.286110  -1.318054  -0.829747
H    -0.330872  -0.021034  -1.577708
H    -0.607671  1.229129  0.273908
C    -1.412744  -0.585976  1.067040
C    -1.163795  -2.028756  1.548846
C    -2.488628  -2.671177  2.022296
N    -2.345133  -4.082910  2.393444
C    -2.855785  -4.683004  3.497684
N    -3.027944  -4.004309  4.636904
N    -3.173488  -5.978099  3.444633
H    -2.202976  -0.575343  0.299973
H    -1.839651  0.018003  1.886744
H    -0.424802  -2.059948  2.364300
H    -0.754236  -2.645995  0.731690
H    -3.242939  -2.593347  1.222855
H    -2.897757  -2.122946  2.879930
H    -2.125751  -4.721356  1.633336
H    -3.557770  -4.405980  5.404241
H    -3.322195  -6.520556  4.290512
H    -3.335273  -6.457565  2.565224
H    -2.519222  -3.153028  4.836550
O    0.821187  0.725163  2.663400
H    -0.111107  0.752874  2.961494
Ca    2.717114  0.400707  -1.122034
