28
Energy: -35057.1261665 eV PBE+vdW (tier 2 basis)
N    1.931242  -0.906574  1.024905
C    0.513460  -0.530235  1.357546
C    0.474166  1.000790  1.502346
O    1.454527  1.683772  1.131535
H    2.390014  -1.222248  1.889298
H    1.913354  -1.743006  0.431322
H    -0.088577  -0.730400  0.451858
C    -0.119093  -1.311056  2.537266
C    -0.310754  -2.818579  2.262815
C    -1.320698  -3.528191  3.192452
N    -0.853290  -3.821970  4.553456
C    -0.823785  -5.052899  5.125214
N    -0.929036  -5.157842  6.452382
N    -0.668716  -6.153492  4.384050
H    -1.115966  -0.879446  2.730953
H    0.472292  -1.134583  3.450449
H    0.652695  -3.349109  2.296738
H    -0.707930  -2.944567  1.242754
H    -1.620387  -4.473893  2.725605
H    -2.244556  -2.933248  3.266154
H    -0.867079  -3.053725  5.217551
H    -0.696897  -6.021804  6.933271
H    -0.828024  -7.074934  4.779549
H    -0.325383  -6.121877  3.432829
H    -1.331690  -4.419803  7.019973
O    -0.564323  1.639099  1.945268
H    -1.317143  1.073557  2.214012
Ca    3.237579  1.068265  0.145447
