28
Energy: -35057.1027862 eV PBE+vdW (tier 2 basis)
N    1.039798  1.547539  1.530859
C    0.213276  0.315573  1.797356
C    1.039481  -0.875516  1.313473
O    1.904999  -0.713161  0.426312
H    0.402496  2.319722  1.302003
H    1.475017  1.843161  2.413944
H    0.026530  0.219576  2.878538
C    -1.141486  0.406505  1.027937
C    -2.225234  -0.669609  1.260552
C    -3.076007  -0.491588  2.533752
N    -4.180812  -1.453109  2.543370
C    -5.416145  -1.248902  3.057083
N    -5.657805  -0.208083  3.862394
N    -6.402851  -2.086880  2.731288
H    -0.915215  0.432004  -0.049189
H    -1.565123  1.392611  1.278216
H    -1.796963  -1.684435  1.219249
H    -2.901600  -0.613305  0.395713
H    -3.509882  0.518631  2.541084
H    -2.467081  -0.598622  3.448514
H    -3.996652  -2.388403  2.192296
H    -4.925467  0.217315  4.417882
H    -7.269009  -2.113493  3.260742
H    -6.338954  -2.708463  1.932203
H    -6.610981  0.037416  4.113158
O    0.855911  -2.082223  1.765742
H    0.229242  -2.144064  2.514384
Ca    2.839517  1.119801  -0.168854
