28
Energy: -35057.145009 eV PBE+vdW (tier 2 basis)
N    0.767903  -2.985029  2.120339
C    0.333810  -2.062154  1.013156
C    1.566187  -1.805048  0.135644
O    2.603997  -2.482649  0.300303
H    0.929844  -2.418372  2.963598
H    -0.030079  -3.579018  2.374069
H    -0.349575  -2.641220  0.365637
C    -0.435844  -0.808744  1.524896
C    -1.215189  -0.018382  0.445943
C    -2.403421  0.829518  0.958031
N    -2.023906  2.114248  1.548603
C    -2.754788  3.254584  1.453649
N    -2.207838  4.407529  1.848799
N    -3.992202  3.238858  0.952092
H    0.260087  -0.158121  2.077768
H    -1.163227  -1.192431  2.256887
H    -1.658065  -0.728071  -0.270876
H    -0.558750  0.662630  -0.123959
H    -3.006164  0.233634  1.663582
H    -3.036311  1.048008  0.088531
H    -1.297210  2.125869  2.257334
H    -1.205705  4.516786  1.955969
H    -4.462336  4.105784  0.707910
H    -4.567548  2.404656  0.960639
H    -2.775613  5.236456  1.996340
O    1.562188  -0.932702  -0.826243
H    0.717213  -0.442404  -0.915443
Ca    2.916541  -4.164214  1.582799
