28
Energy: -35057.1022775 eV PBE+vdW (tier 2 basis)
N    2.583907  -0.346685  1.464339
C    1.265940  -1.056692  1.638926
C    0.237980  -0.272822  0.823832
O    0.427188  0.939249  0.583859
H    3.118464  -0.440740  2.336227
H    3.143828  -0.866715  0.776833
H    1.341527  -2.083180  1.247003
C    0.875040  -1.089799  3.149442
C    -0.364923  -1.893595  3.599653
C    -0.155645  -3.414133  3.742821
N    -1.334758  -4.031610  4.353962
C    -1.340067  -5.101492  5.182734
N    -2.436928  -5.366092  5.896044
N    -0.254720  -5.873758  5.308552
H    0.744566  -0.049610  3.485687
H    1.758574  -1.478194  3.681428
H    -1.234776  -1.680859  2.956958
H    -0.641202  -1.499546  4.588068
H    0.702525  -3.601129  4.404202
H    0.064480  -3.888154  2.770242
H    -2.247376  -3.672870  4.088616
H    -2.570358  -6.267554  6.344197
H    -0.202778  -6.571616  6.044763
H    0.432095  -5.952593  4.568373
H    -3.164756  -4.674363  6.040248
O    -0.864993  -0.810396  0.389212
H    -0.928333  -1.776481  0.529442
Ca    2.278498  2.013430  0.659337
