28
Energy: -35057.2436303 eV PBE+vdW (tier 2 basis)
N    1.460706  -1.231132  -0.776505
C    0.290421  -0.502095  -0.168999
C    0.826840  0.284457  1.033189
O    2.057655  0.362281  1.236674
H    1.405240  -2.216597  -0.485881
H    1.322243  -1.269054  -1.792999
H    -0.020171  0.270516  -0.895136
C    -0.919760  -1.440761  0.103491
C    -2.281326  -0.769576  0.395868
C    -3.446649  -1.776586  0.239188
N    -4.757877  -1.147789  0.415217
C    -5.794219  -1.620756  1.151874
N    -7.039567  -1.294756  0.801302
N    -5.586797  -2.391189  2.224953
H    -0.658873  -2.144250  0.910042
H    -1.032158  -2.042164  -0.812221
H    -2.446428  0.067687  -0.301372
H    -2.333435  -0.364727  1.421663
H    -3.347272  -2.601790  0.954681
H    -3.403145  -2.228909  -0.764541
H    -5.019033  -0.462432  -0.289173
H    -7.267011  -0.955393  -0.127498
H    -4.702294  -2.402399  2.716085
H    -6.360905  -2.868292  2.676524
H    -7.817704  -1.413438  1.443353
O    0.040089  0.929859  1.841071
H    -0.911726  0.833700  1.625981
Ca    3.664156  -0.338416  0.012172
