28
Energy: -35057.2362725 eV PBE+vdW (tier 2 basis)
N    2.073248  0.948392  2.368614
C    1.345975  -0.370178  2.280627
C    0.907542  -0.551195  0.823446
O    1.141013  0.337102  -0.024168
H    1.499086  1.589169  2.931733
H    2.915996  0.813341  2.938803
H    2.081365  -1.169858  2.474678
C    0.206877  -0.468975  3.338580
C    -0.480804  -1.838670  3.525463
C    -1.409473  -1.825754  4.765402
N    -2.235061  -3.030536  4.877869
C    -2.317247  -3.861292  5.945718
N    -3.440984  -4.552183  6.145739
N    -1.289761  -4.003651  6.790453
H    -0.551414  0.299219  3.115988
H    0.676252  -0.182729  4.293005
H    0.265653  -2.640931  3.638547
H    -1.109506  -2.082454  2.653145
H    -2.080979  -0.954667  4.714500
H    -0.825455  -1.711031  5.687120
H    -3.006899  -3.106191  4.220525
H    -3.465486  -5.352148  6.771181
H    -1.409072  -4.492287  7.672377
H    -0.339791  -3.783529  6.521073
H    -4.321542  -4.284174  5.718516
O    0.318868  -1.634686  0.409688
H    0.185895  -2.311232  1.104973
Ca    2.453703  2.015130  0.132403
