28
Energy: -35057.1959848 eV PBE+vdW (tier 2 basis)
N    -0.067969  1.012152  0.804037
C    0.041679  0.256227  2.100721
C    1.541916  0.052986  2.372926
O    2.385489  0.701007  1.715787
H    -0.275709  0.337840  0.055677
H    -0.901979  1.608005  0.842784
H    -0.287898  0.946412  2.899097
C    -0.810824  -1.036180  2.181104
C    -2.329647  -0.792079  2.075263
C    -3.207589  -2.056894  2.132815
N    -3.353749  -2.595448  3.492328
C    -3.845945  -3.833046  3.767234
N    -3.938221  -4.225879  5.040186
N    -4.194089  -4.666378  2.783602
H    -0.604358  -1.535150  3.142765
H    -0.478583  -1.737017  1.397616
H    -2.568670  -0.315515  1.112968
H    -2.656913  -0.079206  2.850039
H    -2.770767  -2.841499  1.497864
H    -4.194145  -1.798105  1.715733
H    -3.508740  -1.909437  4.227517
H    -3.502784  -3.708744  5.795357
H    -4.426336  -5.635041  2.982790
H    -4.429459  -4.333846  1.856138
H    -4.460930  -5.056407  5.300814
O    1.985508  -0.734550  3.303893
H    1.292181  -1.227327  3.788119
Ca    2.089365  2.173737  0.203719
