28
Energy: -35057.1482513 eV PBE+vdW (tier 2 basis)
N    1.833782  -1.104602  0.511758
C    0.390205  -0.707139  0.702237
C    0.362350  0.810095  0.917235
O    1.420200  1.433151  1.154802
H    2.054492  -1.844102  1.189391
H    1.921953  -1.572979  -0.397472
H    -0.152575  -0.909358  -0.235897
C    -0.279891  -1.523753  1.850330
C    -1.787412  -1.284385  2.067479
C    -2.449685  -2.184511  3.130535
N    -2.694338  -3.553404  2.658029
C    -3.047930  -4.581487  3.474348
N    -3.162061  -4.400732  4.792561
N    -3.239965  -5.792574  2.945511
H    0.261911  -1.324687  2.789150
H    -0.111301  -2.582026  1.597200
H    -2.338466  -1.388601  1.116879
H    -1.961454  -0.258857  2.425562
H    -3.396892  -1.704168  3.424544
H    -1.809149  -2.236205  4.023059
H    -3.023049  -3.644728  1.699774
H    -3.289674  -5.193380  5.414966
H    -3.680564  -6.537663  3.476205
H    -2.968237  -6.012524  1.994125
H    -3.326255  -3.486514  5.197246
O    -0.736195  1.502595  0.848787
H    -1.534117  0.989545  0.606642
Ca    3.426315  0.826990  0.764014
