28
Energy: -35057.2901003 eV PBE+vdW (tier 2 basis)
N    1.316472  -1.064913  0.102772
C    0.377593  -0.302223  1.000517
C    1.231258  0.308161  2.119882
O    2.477916  0.308621  2.028945
H    1.245584  -2.062684  0.344142
H    0.951988  -1.018958  -0.855817
H    0.015311  0.566068  0.420946
C    -0.848486  -1.148059  1.448677
C    -2.067555  -0.374826  2.000639
C    -3.307596  -1.290290  2.111696
N    -4.469954  -0.549951  2.601359
C    -5.493436  -1.071729  3.320977
N    -5.595574  -2.391112  3.512216
N    -6.387205  -0.244398  3.867443
H    -0.520046  -1.912680  2.170426
H    -1.177945  -1.688542  0.547778
H    -2.301190  0.474526  1.338812
H    -1.886548  0.033446  3.011135
H    -3.099982  -2.105544  2.818787
H    -3.518058  -1.739495  1.126586
H    -4.644211  0.365428  2.195045
H    -5.196856  -3.057448  2.861497
H    -7.277301  -0.585532  4.217414
H    -6.209265  0.749143  3.966401
H    -6.260372  -2.763941  4.183697
O    0.701570  0.879729  3.158717
H    -0.278512  0.842898  3.170505
Ca    3.707401  -0.382694  0.422806
