28
Energy: -35057.068725 eV PBE+vdW (tier 2 basis)
N    0.879816  -0.896042  -0.403938
C    -0.303716  -0.173942  0.177491
C    0.241037  1.032710  0.954826
O    1.427711  1.392991  0.791438
H    1.142539  -1.657798  0.234230
H    0.572436  -1.378661  -1.256255
H    -0.833138  0.287956  -0.676304
C    -1.348054  -1.049508  0.917912
C    -0.893740  -1.763647  2.205702
C    -2.053783  -2.323405  3.062400
N    -2.749745  -3.492572  2.510069
C    -2.940287  -4.673486  3.153961
N    -2.068018  -5.109220  4.067153
N    -4.006449  -5.416433  2.848878
H    -1.729363  -1.772727  0.180953
H    -2.217391  -0.403292  1.134759
H    -0.355502  -1.059657  2.861458
H    -0.193007  -2.581535  1.975834
H    -2.798615  -1.531814  3.241793
H    -1.665129  -2.591351  4.051706
H    -3.417084  -3.314011  1.765287
H    -2.294460  -5.893395  4.671125
H    -4.071571  -6.388975  3.134870
H    -4.825727  -5.023463  2.397544
H    -1.129363  -4.738632  4.139257
O    -0.503625  1.749881  1.740136
H    -1.432586  1.448368  1.811715
Ca    2.851815  0.650659  -0.620001
