28
Energy: -35056.6254226 eV PBE+vdW (tier 2 basis)
N    0.084375  0.177412  0.167271
C    -0.030909  -0.002309  1.603781
C    1.459212  -0.008569  1.959387
O    2.124176  1.067062  2.111827
H    -0.446382  0.943308  -0.235730
H    0.030513  -0.667292  -0.395636
H    -0.445619  0.913784  2.047966
C    -0.836773  -1.219848  2.101115
C    -2.348782  -1.022618  1.868326
C    -3.275193  -2.092156  2.466615
N    -3.313691  -3.331844  1.676142
C    -3.899494  -4.478270  2.098273
N    -3.884375  -5.552823  1.302422
N    -4.453351  -4.555602  3.311586
H    -0.650862  -1.356396  3.178890
H    -0.494178  -2.140434  1.592687
H    -2.562339  -0.906759  0.794171
H    -2.650778  -0.071491  2.331570
H    -4.285552  -1.657012  2.534932
H    -2.947780  -2.344442  3.485982
H    -3.266960  -3.220801  0.666672
H    -3.313128  -5.592055  0.466738
H    -4.771702  -5.445283  3.682433
H    -4.731718  -3.728958  3.826201
H    -4.458950  -6.365374  1.500248
O    2.157392  -1.109754  2.024366
H    1.600621  -1.914744  1.959763
Ca    3.693463  2.395298  2.231235
