28
Energy: -35057.6067296 eV PBE+vdW (tier 2 basis)
N    0.303839  1.833069  1.914312
C    0.269534  0.373320  2.295030
C    1.410474  -0.302678  1.538636
O    2.330136  0.368514  1.012876
H    -0.405375  1.981139  1.182796
H    -0.054097  2.375412  2.709376
H    0.569122  0.312376  3.357288
C    -1.134230  -0.272308  2.139251
C    -1.395585  -1.522406  3.004220
C    -2.861400  -1.982353  2.892159
N    -3.108880  -3.137409  3.757894
C    -4.095899  -4.045960  3.594636
N    -4.094817  -5.152234  4.344332
N    -5.049094  -3.862442  2.674268
H    -1.317854  -0.490777  1.075508
H    -1.857195  0.506476  2.429440
H    -1.172126  -1.282589  4.056769
H    -0.736962  -2.349981  2.711465
H    -3.079775  -2.280711  1.856402
H    -3.536543  -1.150523  3.156482
H    -2.625463  -3.163888  4.651027
H    -3.274976  -5.447436  4.862427
H    -5.694962  -4.610897  2.443350
H    -5.288954  -2.940220  2.331484
H    -4.915798  -5.745095  4.411601
O    1.383710  -1.600631  1.511788
H    2.169330  -1.980165  1.053437
Ca    2.501840  2.527396  1.016747
