28
Energy: -35057.1617579 eV PBE+vdW (tier 2 basis)
N    0.194419  -0.222459  -0.611687
C    -0.002581  -0.093101  0.874306
C    1.218494  0.662528  1.425956
O    2.031058  1.192847  0.637605
H    0.513449  -1.179604  -0.810908
H    -0.721646  -0.163585  -1.069155
H    -0.849090  0.601174  1.026457
C    -0.317423  -1.426855  1.604646
C    -1.659405  -2.064263  1.186671
C    -1.952171  -3.460352  1.779814
N    -2.513893  -3.435607  3.133521
C    -3.410956  -4.330531  3.615704
N    -3.700185  -5.444763  2.937950
N    -4.025326  -4.074495  4.774477
H    -0.327225  -1.230535  2.689789
H    0.514324  -2.131091  1.436727
H    -1.670584  -2.206837  0.095585
H    -2.496325  -1.387211  1.416528
H    -1.044618  -4.086283  1.745469
H    -2.701413  -3.934668  1.133186
H    -2.086102  -2.834685  3.830014
H    -4.497092  -6.017408  3.200306
H    -4.529727  -4.800298  5.274318
H    -4.068739  -3.139380  5.163360
H    -3.054607  -5.852374  2.271853
O    1.427966  0.826441  2.696323
H    0.768497  0.404088  3.282905
Ca    1.958902  1.357304  -1.484720
