28
Energy: -35057.9691511 eV PBE+vdW (tier 2 basis)
N    1.335615  -1.766270  0.428631
C    0.810066  -0.492698  1.079830
C    2.027186  0.354550  1.493996
O    3.167864  0.081373  0.975428
H    0.692964  -2.122006  -0.294335
H    1.482933  -2.520817  1.114102
H    0.360947  0.083898  0.253056
C    -0.301045  -0.734800  2.112852
C    0.014686  -1.586573  3.356524
C    -1.259540  -1.745641  4.211350
N    -1.028737  -2.589795  5.385131
C    -1.810626  -2.610301  6.490579
N    -1.417595  -3.318994  7.552783
N    -2.946159  -1.906824  6.538281
H    -1.156891  -1.166004  1.569934
H    -0.629064  0.268513  2.422366
H    0.807407  -1.121998  3.961164
H    0.367275  -2.593549  3.070852
H    -2.066445  -2.164368  3.585623
H    -1.584245  -0.755343  4.562407
H    -0.397357  -3.378522  5.279878
H    -2.056793  -3.529662  8.312690
H    -0.467360  -3.658540  7.649355
H    -3.450069  -1.797238  7.413108
H    -3.440793  -1.628901  5.699226
O    1.870640  1.367771  2.240362
H    2.254983  -1.565420  -0.007189
Ca    3.956154  2.031156  1.791014
