28
Energy: -35057.0975223 eV PBE+vdW (tier 2 basis)
N    1.010612  1.422113  1.621810
C    0.125040  0.241355  1.925962
C    0.997311  -1.006045  1.779402
O    2.011401  -0.972997  1.049168
H    0.438342  2.147018  1.172671
H    1.295366  1.851426  2.511292
H    -0.247300  0.311218  2.960229
C    -1.074176  0.200688  0.929201
C    -2.216463  -0.812109  1.165937
C    -3.304052  -0.360901  2.160014
N    -4.426372  -1.302143  2.117815
C    -5.411744  -1.407620  3.039827
N    -5.510253  -0.519907  4.036791
N    -6.263726  -2.432244  2.966412
H    -0.668322  0.032268  -0.079929
H    -1.501469  1.216530  0.924152
H    -1.838516  -1.809284  1.439000
H    -2.692945  -0.951999  0.183607
H    -3.638482  0.655783  1.890137
H    -2.923962  -0.326858  3.192697
H    -4.593815  -1.780362  1.236628
H    -5.157293  0.424843  3.941549
H    -7.133129  -2.435730  3.491090
H    -6.080703  -3.242991  2.384900
H    -6.159514  -0.677696  4.801913
O    0.708765  -2.133372  2.361754
H    -0.049621  -2.090830  2.978221
Ca    3.068020  0.750846  0.344749
