28
Energy: -35056.4573637 eV PBE+vdW (tier 2 basis)
N    0.200058  0.394245  -0.698170
C    0.087575  0.328212  0.750191
C    1.449458  -0.303170  1.044588
O    2.506727  0.399640  1.153671
H    -0.192066  -0.386709  -1.217921
H    -0.058998  1.284897  -1.114052
H    0.151730  1.351672  1.143166
C    -1.183152  -0.312464  1.363098
C    -1.555120  -1.747646  0.934831
C    -3.059936  -2.077525  0.977649
N    -3.620887  -2.069134  2.333518
C    -4.946768  -1.995802  2.606306
N    -5.346888  -1.925999  3.879608
N    -5.847025  -1.955989  1.620062
H    -1.994075  0.369445  1.064514
H    -1.120241  -0.237270  2.458760
H    -1.027261  -2.505072  1.545937
H    -1.270495  -1.938174  -0.113095
H    -3.209285  -3.061249  0.503669
H    -3.600607  -1.328056  0.381647
H    -3.050973  -2.474543  3.070978
H    -4.701267  -1.721649  4.633401
H    -6.821269  -1.746664  1.815330
H    -5.641306  -2.304175  0.691266
H    -6.319081  -2.064574  4.135943
O    1.631999  -1.595331  1.098330
H    0.788285  -2.095294  1.051040
Ca    4.460694  1.039269  1.096357
