15
Energy: -106879.8698987  eV PBE+vdW (tier 2 basis)
N    1.065234  0.365250  1.198377
C    0.835914  0.268004  2.680153
C    2.166326  0.165346  3.422446
O    2.163400  0.315583  4.684301
H    0.177773  -0.037963  0.768476
H    1.195485  1.329466  0.869219
H    0.315625  1.180860  2.998534
C    -0.064174  -0.967625  2.978075
S    -1.485783  -1.028088  1.821639
H    -0.432732  -0.877512  4.005555
H    0.505360  -1.900747  2.896621
H    -1.184837  -2.223686  1.262109
O    3.233183  -0.102707  2.768185
H    1.893804  -0.183457  0.920994
Sr    4.492869  -0.025391  4.825672
