15
Energy: -106879.8543959  eV PBE+vdW (tier 2 basis)
N    0.206894  0.101979  -0.033645
C    0.028896  -0.036230  1.469078
C    1.378422  -0.483958  2.048115
O    1.507077  -0.509050  3.301341
H    -0.617139  -0.199064  -0.572203
H    0.418061  1.073655  -0.302487
H    -0.293438  0.931848  1.870689
C    -0.996215  -1.114694  1.859380
S    -0.330163  -2.832994  1.631949
H    -1.921868  -1.018236  1.276437
H    -1.236082  -0.964753  2.917419
H    -1.277016  -3.445712  2.382987
O    2.198762  -1.031014  1.235591
H    1.031914  -0.482968  -0.288353
Sr    2.662100  -2.568363  3.071389
