15
Energy: -106879.6958191  eV PBE+vdW (tier 2 basis)
N    0.718136  -1.092576  -0.086812
C    0.256160  -0.525616  1.207639
C    1.476888  -0.409129  2.130917
O    2.395666  -1.236924  2.040772
H    -0.104166  -1.317659  -0.657379
H    1.201657  -0.357437  -0.616206
H    -0.212199  0.465063  1.076402
C    -0.804863  -1.436451  1.870221
S    -0.320312  -3.208924  2.085301
H    -1.732282  -1.416121  1.285335
H    -1.050791  -1.066236  2.873433
H    -1.118899  -3.733059  1.123282
O    1.539827  0.508811  3.059111
H    0.807058  1.157538  3.041357
Sr    2.332887  -3.100894  0.600426
