26
Energy: -566927.547576 eV PBE+vdW (tier 2 basis)
N    0.178719  2.161999  0.908420
C    0.817307  0.860303  1.384445
C    1.190027  0.003701  0.125788
O    1.649944  -1.149569  0.307294
H    0.709401  2.595441  0.133907
H    0.136064  2.847476  1.680787
H    1.790651  1.143046  1.818999
C    -0.080138  0.163205  2.421588
C    0.637481  -0.804139  3.386038
C    -0.313856  -1.223588  4.535452
C    0.325360  -1.874125  5.767515
N    0.547030  -3.380087  5.660268
H    -0.926092  -0.331706  1.918155
H    -0.526068  0.974914  3.024710
H    1.519544  -0.299543  3.810386
H    1.006746  -1.681886  2.832555
H    -1.138185  -1.848386  4.155940
H    -0.801926  -0.319105  4.929775
H    -0.331911  -1.747997  6.636426
H    1.300609  -1.438715  6.019694
H    1.203744  -3.642090  4.912537
H    -0.337167  -3.884266  5.493885
H    0.937132  -3.748395  6.542867
O    1.041191  0.563538  -1.000094
H    -0.787451  2.021401  0.569211
Hg    1.932846  -1.311425  -2.053548
