26
Energy: -566927.771830 eV PBE+vdW (tier 2 basis)
N    -0.337514  -0.034054  0.027214
C    0.993149  -0.307502  0.720037
C    2.073101  -0.573609  -0.382646
O    1.718985  -0.457400  -1.585944
H    -1.032144  0.320701  0.703784
H    -0.732136  -0.882958  -0.409876
H    1.296497  0.648208  1.178672
C    0.897028  -1.422513  1.776173
C    -0.041591  -1.066389  2.954750
C    -0.178371  -2.155088  4.050982
C    0.978705  -2.210379  5.053765
N    0.648903  -3.132981  6.219809
H    1.925956  -1.585641  2.126910
H    0.578215  -2.362295  1.296360
H    -1.065522  -0.900890  2.584871
H    0.277929  -0.117004  3.412873
H    -0.331060  -3.141958  3.586935
H    -1.106383  -1.923411  4.596575
H    1.181318  -1.228201  5.499611
H    1.910953  -2.595156  4.622542
H    1.426720  -3.169767  6.897551
H    0.467384  -4.101607  5.914922
H    -0.185452  -2.815128  6.737619
O    3.241518  -0.842367  0.010710
H    -0.244553  0.672617  -0.721384
Hg    3.984365  -0.893225  -2.179816
