26
Energy: -566926.787467 eV PBE+vdW (tier 2 basis)
N    2.171370  -0.420200  0.111151
C    1.271177  -0.096466  1.238156
C    1.463881  -1.050408  2.462582
O    2.215151  -2.038842  2.465391
H    1.675300  -0.776230  -0.714937
H    2.750989  0.378658  -0.175922
H    1.590967  0.890960  1.613915
C    -0.232403  -0.013810  0.793963
C    -0.938227  -1.337714  0.443684
C    -2.330490  -1.186482  -0.225984
C    -3.471131  -0.799642  0.723067
N    -4.818138  -0.845748  0.014730
H    -0.254924  0.685703  -0.055834
H    -0.759189  0.514108  1.605060
H    -1.024921  -1.977472  1.336275
H    -0.329534  -1.911281  -0.274046
H    -2.565126  -2.160784  -0.680918
H    -2.266345  -0.464186  -1.055100
H    -3.379856  0.219623  1.118551
H    -3.554819  -1.495417  1.567870
H    -5.032526  -1.787566  -0.349342
H    -5.585055  -0.591767  0.658081
H    -4.865942  -0.192218  -0.782363
O    0.797040  -0.810594  3.551729
H    0.276772  0.019746  3.558041
Hg    3.655877  -2.138684  0.701209
