26
Energy: -566926.923299 eV PBE+vdW (tier 2 basis)
N    0.745343  0.672685  0.090582
C    0.718668  0.429493  1.548773
C    1.826008  1.247189  2.296781
O    2.545524  2.103353  1.755520
H    1.192817  -0.088916  -0.435111
H    -0.187846  0.841957  -0.304233
H    -0.228896  0.856445  1.920556
C    0.795114  -1.112822  1.870907
C    -0.057417  -1.528073  3.098324
C    0.080665  -3.011145  3.534094
C    -0.752082  -4.010630  2.722734
N    -0.743579  -5.388000  3.372015
H    1.846840  -1.410129  1.996066
H    0.416302  -1.644841  0.986245
H    -1.115462  -1.282961  2.917684
H    0.217476  -0.937175  3.988968
H    -0.254364  -3.045186  4.583243
H    1.140842  -3.308433  3.539515
H    -0.378357  -4.159689  1.702255
H    -1.807268  -3.713790  2.667654
H    -1.301225  -6.061187  2.822052
H    0.207302  -5.780524  3.453125
H    -1.148390  -5.370522  4.321600
O    2.005810  1.053481  3.567380
H    1.408849  0.387672  3.970570
Hg    2.064200  2.558609  -0.412977
