26
Energy: -566927.704622 eV PBE+vdW (tier 2 basis)
N    -0.353649  0.271901  0.129429
C    -0.330367  0.338781  1.653074
C    0.764928  1.378112  2.078356
O    1.270676  2.077833  1.158133
H    0.446073  -0.259854  -0.251620
H    -0.317655  1.213849  -0.296724
H    -1.277620  0.822199  1.947019
C    -0.225728  -1.066843  2.269824
C    -0.596863  -1.119404  3.766299
C    -0.997151  -2.512651  4.317431
C    0.157613  -3.490321  4.550069
N    -0.324987  -4.742023  5.272137
H    0.771961  -1.490853  2.074177
H    -0.943475  -1.688978  1.704304
H    -1.464595  -0.466262  3.938551
H    0.220724  -0.701995  4.373830
H    -1.754020  -2.968082  3.659155
H    -1.498838  -2.322882  5.278909
H    0.938261  -3.059087  5.189623
H    0.623909  -3.842785  3.621680
H    -0.730418  -4.520654  6.195087
H    0.450192  -5.403983  5.434447
H    -1.047376  -5.248024  4.736963
O    1.023525  1.494879  3.305588
H    -1.216975  -0.190126  -0.200841
Hg    2.460855  3.279254  2.808101
