26
Energy: -566927.174209 eV PBE+vdW (tier 2 basis)
N    1.582581  0.357123  0.210894
C    1.266063  -0.315431  1.543019
C    2.125660  -1.622648  1.638685
O    2.887786  -1.880224  0.668785
H    1.190421  1.312380  0.181345
H    1.186363  -0.163741  -0.589492
H    1.664689  0.350427  2.324822
C    -0.252709  -0.544730  1.686901
C    -0.755638  -0.858598  3.113891
C    -0.969779  0.356907  4.050219
C    -2.352658  1.024629  4.016068
N    -3.377818  0.344104  4.918442
H    -0.556745  -1.347263  0.997296
H    -0.744718  0.370883  1.311857
H    -0.059267  -1.560802  3.598374
H    -1.686290  -1.433482  2.998408
H    -0.243593  1.152958  3.825387
H    -0.733369  0.067766  5.085453
H    -2.799705  1.045936  3.013949
H    -2.293275  2.056802  4.381429
H    -4.286607  0.832756  4.871438
H    -3.083066  0.360144  5.907228
H    -3.554153  -0.638803  4.665295
O    2.023490  -2.315384  2.688076
H    2.599897  0.432316  0.042193
Hg    3.639442  -3.789026  1.858038
