26
Energy: -566927.535217 eV PBE+vdW (tier 2 basis)
N    -0.501918  1.271357  3.996082
C    -0.178873  -0.028115  3.266555
C    1.355370  -0.031747  2.953580
O    1.838616  -1.117374  2.518391
H    -0.009257  1.351293  4.900900
H    -0.234077  2.098223  3.435948
H    -0.345638  -0.844035  3.985194
C    -1.016664  -0.190230  1.984270
C    -2.524519  -0.527330  2.147802
C    -2.834190  -1.982638  2.573649
C    -4.074255  -2.632408  1.945148
N    -5.417200  -2.160940  2.496557
H    -0.539879  -0.988641  1.398281
H    -0.915551  0.725815  1.380347
H    -2.944577  -0.338347  1.147480
H    -3.030145  0.198982  2.805906
H    -2.869219  -2.092698  3.668873
H    -2.011865  -2.637169  2.244265
H    -4.056975  -3.714776  2.121300
H    -4.119661  -2.467585  0.860961
H    -5.500064  -2.325779  3.511012
H    -5.600916  -1.162847  2.321861
H    -6.187068  -2.684519  2.048376
O    2.004020  1.025075  3.154030
H    -1.513107  1.338015  4.190224
Hg    3.933611  -0.200580  2.387007
