26
Energy: -566927.535257 eV PBE+vdW (tier 2 basis)
N    -0.203722  0.154502  0.202042
C    -0.015630  -0.028318  1.704706
C    0.831461  1.175590  2.241182
O    1.204116  2.035501  1.395246
H    -0.524373  1.106671  -0.041684
H    -0.905293  -0.512311  -0.159908
H    -1.013382  0.093202  2.153959
C    0.606660  -1.407241  2.003774
C    0.458011  -1.948844  3.443592
C    -0.920382  -2.563186  3.766839
C    -1.087641  -3.136523  5.180248
N    -0.481460  -4.523392  5.375143
H    1.672516  -1.381225  1.729293
H    0.140245  -2.121873  1.301926
H    0.697308  -1.157717  4.172909
H    1.254067  -2.700033  3.555306
H    -1.182951  -3.333024  3.022470
H    -1.709070  -1.799454  3.684469
H    -2.151491  -3.254441  5.417771
H    -0.638479  -2.497411  5.950867
H    -0.896582  -5.217927  4.735335
H    -0.660924  -4.860652  6.334830
H    0.539139  -4.545426  5.240020
O    1.066933  1.221390  3.477012
H    0.673475  -0.008090  -0.320667
Hg    2.208451  3.254230  3.139319
