26
Energy: -566926.978198 eV PBE+vdW (tier 2 basis)
N    0.385000  -0.342107  -0.117452
C    0.629037  -0.659580  1.306852
C    2.030026  -1.319258  1.516648
O    2.611906  -1.979968  0.640197
H    -0.584501  -0.524939  -0.405978
H    0.622219  0.628363  -0.365508
H    0.669257  0.307955  1.840411
C    -0.505872  -1.569169  1.872145
C    -0.521797  -1.761804  3.406549
C    -1.820479  -2.460803  3.879905
C    -1.827329  -2.647950  5.402554
N    -3.099785  -3.322400  5.892455
H    -0.467192  -2.548793  1.368302
H    -1.448041  -1.084874  1.569438
H    -0.446294  -0.780050  3.902604
H    0.341587  -2.365052  3.725783
H    -1.912066  -3.439737  3.383585
H    -2.691788  -1.859023  3.576866
H    -1.770995  -1.690525  5.935704
H    -1.000065  -3.282566  5.744489
H    -3.081742  -3.434899  6.918986
H    -3.945229  -2.776258  5.666636
H    -3.224503  -4.264258  5.490811
O    2.600124  -1.240933  2.680467
H    2.154638  -0.652321  3.325791
Hg    1.742873  -1.701634  -1.453813
