26
Energy: -566926.803031 eV PBE+vdW (tier 2 basis)
N    0.734245  0.873291  3.146564
C    0.524361  -0.338593  3.965473
C    1.832946  -1.181924  4.141638
O    2.932178  -0.872430  3.651492
H    0.321579  0.806108  2.208673
H    0.382098  1.725163  3.600635
H    0.301326  0.013476  4.987824
C    -0.678050  -1.210067  3.456739
C    -0.506326  -1.937278  2.109078
C    -1.569571  -3.027754  1.806867
C    -2.966143  -2.510797  1.442704
N    -3.873905  -3.648467  0.994923
H    -1.553872  -0.544607  3.461843
H    -0.880165  -1.942037  4.256279
H    0.464439  -2.456055  2.088217
H    -0.487270  -1.220183  1.271788
H    -1.634405  -3.721163  2.660341
H    -1.175815  -3.614413  0.962772
H    -2.937445  -1.804757  0.602816
H    -3.484138  -2.031050  2.282398
H    -4.004229  -4.360154  1.730633
H    -4.813055  -3.298733  0.745700
H    -3.504443  -4.134817  0.162746
O    1.792633  -2.266578  4.853642
H    0.936271  -2.461703  5.287916
Hg    3.027037  1.213859  2.755914
