26
Energy: -566926.875942 eV PBE+vdW (tier 2 basis)
N    0.814211  0.357327  -0.099857
C    0.413468  0.001283  1.272999
C    1.623928  0.028880  2.277204
O    2.813639  -0.021876  1.927160
H    0.452908  -0.291682  -0.808059
H    0.564073  1.317302  -0.368992
H    -0.252856  0.808521  1.628660
C    -0.275123  -1.393505  1.350243
C    -1.750818  -1.416692  0.877599
C    -2.318384  -2.854102  0.946771
C    -3.722955  -3.075370  0.362683
N    -4.868954  -2.873683  1.349698
H    -0.220446  -1.750841  2.389088
H    0.329880  -2.112233  0.771162
H    -1.828977  -1.049202  -0.158792
H    -2.340004  -0.722929  1.498150
H    -2.272283  -3.241253  1.977737
H    -1.660070  -3.518818  0.367355
H    -3.824445  -4.113227  0.023800
H    -3.937751  -2.422230  -0.492305
H    -5.773800  -3.073298  0.892369
H    -4.798326  -3.515446  2.154390
H    -4.929883  -1.914668  1.719109
O    1.383744  0.064042  3.551059
H    0.442646  0.155656  3.810995
Hg    3.172853  0.242791  -0.298316
