35
Energy: -571611.1453296  eV PBE+vdW (tier 2 basis)
C    0.360353  -2.145704  0.947076
C    -0.052180  -1.582558  2.265435
O    0.464324  -1.941758  3.381662
H    0.286940  -3.242145  0.975206
H    1.411949  -1.871884  0.754964
H    -0.241876  -1.772069  0.112041
N    -1.042062  -0.676789  2.302613
C    -1.638442  -0.091597  3.496997
C    -3.084139  -0.696702  3.626541
O    -3.798458  -0.669185  2.629517
H    -1.563087  -0.534700  1.433006
H    -1.024945  -0.390629  4.359474
C    -1.729097  1.453984  3.351585
C    -2.398559  2.152674  4.548345
C    -2.318274  3.697539  4.538202
C    -3.273030  4.377526  3.554904
N    -3.266460  5.889782  3.741081
H    -2.256503  1.679044  2.412268
H    -0.694139  1.810221  3.233990
H    -1.909750  1.822510  5.476995
H    -3.453422  1.847542  4.631700
H    -1.282242  4.016878  4.342475
H    -2.559974  4.035680  5.557934
H    -4.313174  4.062728  3.707815
H    -3.009921  4.205464  2.504138
H    -3.558678  6.158144  4.693249
H    -3.913166  6.352558  3.083898
H    -2.331585  6.295445  3.584496
N    -3.465100  -1.204087  4.821627
C    -4.735271  -1.882906  5.016892
H    -2.778602  -1.249283  5.573432
H    -5.053882  -1.740087  6.057742
H    -4.637819  -2.970382  4.845978
H    -5.469179  -1.493324  4.301007
Hg    2.517117  -2.941588  3.513589
