35
Energy: -571611.0910270  eV PBE+vdW (tier 2 basis)
C    -0.654273  0.116455  -0.933341
C    -1.000096  -0.090489  0.506731
O    -1.141711  -1.189226  1.042189
H    -0.659990  -0.846426  -1.451279
H    0.359442  0.549204  -0.995186
H    -1.339473  0.817750  -1.429416
N    -1.169246  1.077601  1.271716
C    -1.666467  1.184254  2.603620
C    -0.689865  0.512189  3.689872
O    -0.397571  1.389082  4.558040
H    -1.016637  1.960536  0.779489
H    -1.616945  2.252343  2.853359
C    -3.179140  0.808918  2.902676
C    -3.734646  -0.579534  2.585152
C    -5.269609  -0.602937  2.828062
C    -5.872840  -1.964393  2.475092
N    -7.383755  -1.978885  2.664913
H    -3.727667  1.572784  2.328431
H    -3.323322  1.057706  3.964811
H    -3.257868  -1.350049  3.208881
H    -3.543707  -0.849337  1.537904
H    -5.743569  0.181162  2.216481
H    -5.479761  -0.360905  3.881729
H    -5.481558  -2.770241  3.108356
H    -5.699598  -2.234888  1.426001
H    -7.777564  -2.903119  2.428253
H    -7.856578  -1.287011  2.063745
H    -7.655607  -1.775239  3.638555
N    -0.325943  -0.739721  3.593013
C    0.589750  -1.455492  4.487846
H    -0.659104  -1.205707  2.725089
H    0.186646  -1.508061  5.507910
H    1.592133  -1.003754  4.476606
H    0.686484  -2.479842  4.111330
Hg    0.994354  1.376751  6.378397
