35
Energy: -571610.8895360  eV PBE+vdW (tier 2 basis)
C    -2.031504  1.555308  -1.745611
C    -1.290568  0.942856  -0.616135
O    -0.063098  0.619475  -0.809897
H    -1.858628  0.935457  -2.641925
H    -1.611562  2.543527  -1.988915
H    -3.108977  1.613365  -1.558986
N    -1.857728  0.671958  0.584545
C    -2.640474  1.608590  1.399220
C    -1.602952  2.377311  2.263962
O    -0.443610  1.873986  2.530295
H    -1.315345  0.013901  1.147472
H    -3.117690  2.327270  0.718818
C    -3.760101  0.903953  2.217706
C    -3.310158  -0.220634  3.168565
C    -4.412133  -0.761517  4.113479
C    -5.475633  -1.627864  3.433352
N    -6.409450  -2.257914  4.459067
H    -4.477913  0.530686  1.472889
H    -4.289223  1.680639  2.788997
H    -2.501339  0.142110  3.821052
H    -2.891409  -1.065548  2.598122
H    -4.892456  0.078620  4.639823
H    -3.905062  -1.362397  4.884089
H    -5.031968  -2.465436  2.880056
H    -6.122185  -1.064237  2.749803
H    -7.125089  -2.845675  4.003745
H    -6.909886  -1.549136  5.016498
H    -5.899631  -2.861939  5.122061
N    -1.889027  3.548212  2.810462
C    -3.144797  4.294947  2.845401
H    -1.110683  3.960554  3.337096
H    -2.914223  5.353895  2.665944
H    -3.602853  4.215308  3.842385
H    -3.844580  3.942350  2.083740
Hg    1.105653  1.122584  1.024947
