35
Energy: -571611.0020958  eV PBE+vdW (tier 2 basis)
C    2.753044  -2.113201  1.592999
C    1.709855  -1.944621  2.646925
O    1.805090  -2.447151  3.827899
H    2.476419  -1.646404  0.641752
H    2.926666  -3.185388  1.418842
H    3.695105  -1.656004  1.936968
N    0.597173  -1.267480  2.359241
C    -0.583721  -1.141301  3.221678
C    -1.784071  -1.537343  2.319211
O    -1.697020  -1.253169  1.120641
H    0.430970  -1.028308  1.375553
H    -0.464014  -1.838720  4.059720
C    -0.808100  0.305599  3.766249
C    -0.835143  1.426322  2.714422
C    -0.981198  2.864222  3.269988
C    -2.404962  3.253626  3.672094
N    -2.492203  4.736910  4.009895
H    0.007475  0.485389  4.484720
H    -1.736391  0.279103  4.357155
H    -1.626112  1.242512  1.968696
H    0.108652  1.411862  2.151057
H    -0.642914  3.546355  2.474869
H    -0.295105  3.010319  4.119356
H    -2.766593  2.723516  4.561569
H    -3.119354  3.092454  2.854788
H    -3.451955  5.008005  4.273708
H    -2.220993  5.326331  3.207853
H    -1.876785  4.992319  4.796720
N    -2.894151  -2.123349  2.828756
C    -3.108659  -2.716458  4.134408
H    -3.598807  -2.329200  2.112417
H    -4.153758  -2.535637  4.429003
H    -2.439768  -2.294553  4.888719
H    -2.979419  -3.812248  4.091436
Hg    3.726188  -3.325589  4.637225
