35
Energy: -571611.0887308  eV PBE+vdW (tier 2 basis)
C    -0.244169  -2.272591  0.206179
C    -0.662839  -1.890369  1.591121
O    -1.043140  -2.663889  2.454224
H    -0.653507  -1.585647  -0.548462
H    -0.565952  -3.297984  -0.001294
H    0.855567  -2.234597  0.141870
N    -0.600481  -0.507633  1.931188
C    -0.744999  -0.058612  3.265200
C    -2.333729  0.190243  3.624722
O    -2.517059  0.457984  4.835776
H    -0.324269  0.156975  1.205536
H    -0.526142  -0.901815  3.939193
C    0.076346  1.196807  3.607509
C    1.597150  0.920316  3.627332
C    2.406691  2.153652  4.084578
C    3.907326  1.849212  4.104198
N    4.728551  3.047467  4.560002
H    -0.255908  1.538925  4.597884
H    -0.162136  2.009471  2.901885
H    1.939397  0.611389  2.627826
H    1.802664  0.076167  4.303687
H    2.077549  2.457718  5.090994
H    2.206579  3.000594  3.409182
H    4.288951  1.585006  3.110047
H    4.154805  1.034234  4.795843
H    5.736065  2.823786  4.565596
H    4.480786  3.346390  5.515053
H    4.603529  3.861914  3.940177
N    -3.214975  0.058319  2.659310
C    -4.671544  0.169736  2.782185
H    -2.836220  -0.191137  1.746727
H    -4.958240  1.150763  3.182748
H    -5.082994  -0.655656  3.382336
H    -5.099225  0.083639  1.776248
Hg    -4.437917  0.512023  6.141346
