35
Energy: -571611.4279468  eV PBE+vdW (tier 2 basis)
C    0.767451  2.786615  0.902304
C    0.567199  1.819052  2.026288
O    1.400103  0.841448  2.041774
H    -0.092423  3.447789  0.746385
H    0.982071  2.231736  -0.021435
H    1.665509  3.387909  1.117329
N    -0.423022  2.056715  2.904212
C    -1.122851  1.238879  3.946335
C    -0.375675  1.162585  5.304293
O    0.566838  0.316868  5.568818
H    -0.891346  2.941817  2.719631
H    -2.019633  1.839870  4.152463
C    -1.619867  -0.147503  3.464510
C    -2.791773  -0.093213  2.458968
C    -3.221163  -1.511028  2.024930
C    -4.272757  -1.612201  0.914599
N    -5.715727  -1.475998  1.393902
H    -1.929482  -0.704798  4.362109
H    -0.797184  -0.730070  3.018881
H    -2.498136  0.483818  1.568453
H    -3.631000  0.448746  2.925232
H    -3.538009  -2.106310  2.897002
H    -2.342460  -2.040158  1.625411
H    -4.225846  -2.598620  0.438399
H    -4.139293  -0.854078  0.132630
H    -5.917965  -0.559161  1.815357
H    -5.955642  -2.199649  2.088315
H    -6.370339  -1.593092  0.604010
N    -0.788758  1.942424  6.282218
C    -0.225107  1.984480  7.638971
H    -1.608638  2.525792  6.116119
H    0.820105  1.664294  7.616387
H    -0.795973  1.314583  8.297374
H    -0.308127  3.010765  8.011922
Hg    1.790920  -0.211304  3.881902
