35
Energy: -571610.9013915  eV PBE+vdW (tier 2 basis)
C    1.051961  -0.936857  1.499703
C    0.238356  -0.978993  2.743339
O    0.529700  -1.738950  3.739503
H    2.009322  -0.435972  1.723521
H    0.581454  -0.396999  0.673783
H    1.280323  -1.959955  1.173220
N    -0.887068  -0.270690  2.925055
C    -1.677658  0.473333  1.957793
C    -2.361389  1.595225  2.810000
O    -2.717706  1.317328  3.952702
H    -1.304723  -0.315522  3.864854
H    -1.006192  0.898236  1.203762
C    -2.789425  -0.340790  1.218464
C    -3.874761  -1.021528  2.067228
C    -4.878088  -1.768894  1.158441
C    -5.926024  -2.640476  1.853663
N    -7.129365  -1.868672  2.389774
H    -2.253603  -1.092285  0.615158
H    -3.249618  0.347491  0.492836
H    -4.392479  -0.272526  2.689421
H    -3.416787  -1.739189  2.765554
H    -4.320579  -2.462047  0.510225
H    -5.372001  -1.068910  0.464713
H    -5.517593  -3.196523  2.706792
H    -6.346037  -3.365656  1.146519
H    -7.622645  -1.365968  1.636789
H    -6.876054  -1.180694  3.112040
H    -7.813290  -2.513665  2.815986
N    -2.555338  2.821563  2.262931
C    -2.081164  3.365737  1.003107
H    -2.912855  3.499494  2.944185
H    -2.044015  2.603540  0.218574
H    -1.085211  3.828946  1.117415
H    -2.769620  4.166463  0.698792
Hg    2.594712  -2.283358  4.444317
