35
Energy: -571610.8533656  eV PBE+vdW (tier 2 basis)
C    -0.777046  -0.200903  -0.438172
C    -0.561968  -0.218058  1.039765
O    0.486726  -0.457239  1.613572
H    0.177554  -0.338367  -0.953455
H    -1.252765  0.731165  -0.774700
H    -1.451297  -1.033700  -0.700934
N    -1.693165  0.096550  1.851840
C    -1.607538  0.060778  3.261739
C    -2.889598  -0.681169  3.844098
O    -2.558535  -1.823786  4.262102
H    -2.486563  0.544668  1.389058
H    -0.741306  -0.579126  3.499788
C    -1.422702  1.433185  4.018118
C    -0.035395  2.079523  3.830677
C    1.125559  1.406337  4.590656
C    2.295606  2.314380  4.981343
N    3.207834  2.715814  3.824998
H    -1.611781  1.253387  5.086202
H    -2.195708  2.130722  3.660621
H    -0.175583  3.105519  4.216326
H    0.191582  2.193378  2.760013
H    1.501223  0.523574  4.050691
H    0.753892  1.028586  5.556188
H    2.948802  1.802855  5.698249
H    1.959162  3.253449  5.438967
H    3.997245  3.283806  4.171676
H    2.726186  3.281224  3.112373
H    3.614460  1.893964  3.354088
N    -4.067386  -0.096576  3.843888
C    -5.332987  -0.663420  4.340878
H    -4.107294  0.864748  3.510611
H    -6.111393  0.096153  4.214233
H    -5.260862  -0.897721  5.411364
H    -5.619840  -1.544800  3.753441
Hg    -3.729094  -3.626491  5.203305
