35
Energy: -571610.8645084  eV PBE+vdW (tier 2 basis)
C    0.565207  1.486773  0.648356
C    0.228517  0.464188  1.670459
O    0.832413  -0.643794  1.797870
H    -0.050718  2.389496  0.695024
H    0.504325  1.043366  -0.356049
H    1.614505  1.791257  0.797479
N    -0.808235  0.611102  2.549065
C    -1.952622  1.493376  2.442375
C    -1.608706  2.833766  3.283776
O    -1.588900  3.863176  2.633390
H    -0.836405  -0.121047  3.266887
H    -2.026421  1.867523  1.416931
C    -3.281628  0.866077  2.908051
C    -3.958516  -0.059142  1.865802
C    -4.815033  0.656481  0.796633
C    -6.251882  1.019663  1.189606
N    -7.230410  -0.139683  1.019011
H    -3.956519  1.692132  3.177855
H    -3.109180  0.309362  3.843116
H    -4.566347  -0.785709  2.427197
H    -3.195511  -0.669077  1.360712
H    -4.834269  0.054084  -0.124815
H    -4.338142  1.600356  0.491635
H    -6.643324  1.819796  0.550707
H    -6.347878  1.343713  2.233697
H    -8.185160  0.141958  1.292086
H    -6.984460  -0.961604  1.588762
H    -7.279965  -0.449284  0.036298
N    -1.362178  2.720998  4.601768
C    -1.208211  3.894530  5.462931
H    -1.525598  1.826016  5.059283
H    -0.617104  3.600476  6.338735
H    -2.184267  4.267040  5.813318
H    -0.716196  4.692860  4.894081
Hg    3.101708  -1.088615  1.459349
