35
Energy: -571610.8586586  eV PBE+vdW (tier 2 basis)
C    0.380230  0.451454  -0.379863
C    0.331787  0.877987  1.039311
O    1.043190  1.818267  1.525442
H    1.430828  0.270269  -0.655779
H    0.024412  1.268951  -1.025213
H    -0.190734  -0.459228  -0.581397
N    -0.502673  0.338215  1.969548
C    -1.790929  -0.346989  1.821036
C    -1.446494  -1.877550  1.511172
O    -1.496591  -2.250840  0.348347
H    -0.276787  0.653683  2.918465
H    -2.252448  -0.302432  2.816216
C    -2.765392  0.235912  0.780861
C    -4.199621  -0.323194  0.894243
C    -5.086744  0.213806  -0.248880
C    -6.477245  -0.407111  -0.395251
N    -7.520796  0.153226  0.568406
H    -2.386375  0.042784  -0.230805
H    -2.779798  1.326229  0.932096
H    -4.616953  -0.059887  1.880037
H    -4.177438  -1.422198  0.835000
H    -4.587279  0.003845  -1.206956
H    -5.167418  1.312210  -0.201854
H    -6.473514  -1.493543  -0.241283
H    -6.879493  -0.208850  -1.395736
H    -8.442253  -0.278372  0.395680
H    -7.639656  1.170184  0.448520
H    -7.288866  -0.019703  1.555821
N    -1.096856  -2.689811  2.538438
C    -1.206099  -2.496457  3.977454
H    -0.972322  -3.661812  2.236364
H    -0.394293  -3.066090  4.453250
H    -2.155896  -2.899794  4.362375
H    -1.104048  -1.446551  4.263693
Hg    3.190823  2.434074  0.968882
