35
Energy: -571610.8912166  eV PBE+vdW (tier 2 basis)
C    0.879124  0.495808  0.555351
C    0.299197  -0.214086  1.732100
O    1.009046  -0.718765  2.677380
H    1.622592  -0.148606  0.064730
H    1.385419  1.412399  0.903457
H    0.125127  0.789443  -0.182851
N    -1.026833  -0.374964  1.806833
C    -1.760470  -1.112270  2.835207
C    -2.482981  -2.285612  2.088689
O    -3.105038  -1.999198  1.067331
H    -1.573342  -0.117383  0.979620
H    -1.029069  -1.508008  3.554495
C    -2.793448  -0.174615  3.525593
C    -3.711272  -0.832783  4.584069
C    -5.124720  -1.237198  4.104885
C    -6.177218  -0.124341  4.050033
N    -6.814493  0.162856  5.407382
H    -3.386389  0.324504  2.744242
H    -2.187428  0.611546  3.998185
H    -3.782985  -0.134301  5.432019
H    -3.219811  -1.717844  5.013786
H    -5.504907  -2.060264  4.730013
H    -5.082178  -1.656636  3.089255
H    -7.011195  -0.403878  3.395732
H    -5.776105  0.833873  3.696033
H    -7.301121  -0.667372  5.778394
H    -7.518085  0.914116  5.332526
H    -6.130233  0.460483  6.117170
N    -2.395756  -3.530881  2.603191
C    -2.937162  -4.702615  1.929684
H    -1.785665  -3.683403  3.404989
H    -2.175115  -5.174504  1.284416
H    -3.779876  -4.402269  1.296447
H    -3.233365  -5.439896  2.686861
Hg    3.154125  -0.083627  3.053462
