35
Energy: -571610.7965879  eV PBE+vdW (tier 2 basis)
C    0.006799  0.637785  -0.735356
C    0.106510  -0.342415  0.375780
O    1.022591  -1.225740  0.436596
H    -0.896553  1.247760  -0.715923
H    0.065562  0.118763  -1.699520
H    0.879571  1.312016  -0.650044
N    -0.719204  -0.383463  1.467279
C    -2.161396  -0.200056  1.523668
C    -2.856708  -1.038656  0.367545
O    -2.286726  -1.110811  -0.714578
H    -0.357228  -1.028869  2.175120
H    -2.450090  -0.651507  2.482099
C    -2.710816  1.256491  1.481245
C    -2.241025  2.089677  2.693256
C    -3.118587  3.312284  3.048038
C    -3.026129  4.491360  2.078669
N    -3.793858  5.695030  2.612021
H    -2.462345  1.736931  0.526351
H    -3.807599  1.162966  1.492382
H    -1.194663  2.401036  2.553022
H    -2.242981  1.450865  3.588943
H    -2.796576  3.647047  4.047075
H    -4.168749  2.994994  3.152749
H    -1.992171  4.833063  1.942618
H    -3.455914  4.276504  1.092473
H    -3.735789  6.497006  1.965625
H    -4.794684  5.486560  2.747934
H    -3.423708  6.011321  3.521646
N    -4.046384  -1.628630  0.617492
C    -4.750804  -1.804330  1.878230
H    -4.374745  -2.199517  -0.167460
H    -4.657254  -0.927671  2.525827
H    -4.400486  -2.705020  2.410449
H    -5.813941  -1.959833  1.649418
Hg    3.096115  -1.118661  -0.496830
