35
Energy: -571610.9745705  eV PBE+vdW (tier 2 basis)
C    -0.657270  1.533173  -0.312420
C    -0.429733  0.596280  0.817031
O    0.681144  0.073421  1.114526
H    -0.770267  0.954669  -1.245242
H    0.223401  2.173986  -0.448356
H    -1.540962  2.166591  -0.181252
N    -1.466264  0.147808  1.604956
C    -2.852749  0.084052  1.227622
C    -3.752845  1.193279  2.024100
O    -4.933727  1.159287  1.717390
H    -1.156421  -0.458789  2.371755
H    -2.953445  0.441236  0.194065
C    -3.526173  -1.298303  1.346219
C    -3.692415  -1.881371  2.765010
C    -4.838475  -2.909032  2.916138
C    -4.607852  -4.246126  2.210335
N    -5.733152  -5.225360  2.519918
H    -2.965550  -1.983233  0.692030
H    -4.515950  -1.155520  0.887362
H    -3.931327  -1.069920  3.469022
H    -2.751388  -2.331012  3.119303
H    -5.776444  -2.453369  2.560507
H    -4.967417  -3.092056  3.994239
H    -3.683744  -4.736047  2.542767
H    -4.581959  -4.158304  1.117067
H    -6.650490  -4.870392  2.209795
H    -5.583620  -6.131840  2.050617
H    -5.806991  -5.416013  3.531050
N    -3.163061  2.039487  2.864551
C    -3.906634  3.052141  3.631582
H    -2.182825  1.885958  3.086106
H    -3.218548  3.873086  3.862461
H    -4.288126  2.630997  4.571621
H    -4.745339  3.416403  3.029039
Hg    2.847963  0.948458  0.842190
