35
Energy: -571610.9399498  eV PBE+vdW (tier 2 basis)
C    0.250542  0.992231  0.910235
C    -0.082344  -0.131728  1.835314
O    0.768926  -1.029433  2.197519
H    -0.610931  1.632072  0.690990
H    0.632315  0.585107  -0.037751
H    1.032896  1.619820  1.367575
N    -1.326208  -0.242873  2.296888
C    -1.873110  -1.336244  3.114644
C    -3.062030  -1.889821  2.270981
O    -3.770893  -1.043966  1.716670
H    -2.035356  0.376863  1.891188
H    -1.080884  -2.083750  3.252484
C    -2.405659  -0.775890  4.465166
C    -3.085860  -1.820301  5.369091
C    -3.910258  -1.245255  6.544833
C    -3.086360  -0.661814  7.693211
N    -3.985000  -0.268884  8.859492
H    -3.115043  0.033187  4.229514
H    -1.546276  -0.308785  4.968703
H    -2.343262  -2.538746  5.750125
H    -3.801275  -2.409069  4.776218
H    -4.525217  -2.070434  6.936365
H    -4.612495  -0.487280  6.162610
H    -2.541111  0.248833  7.416678
H    -2.370283  -1.388436  8.097922
H    -3.439182  0.120999  9.643116
H    -4.507702  -1.078535  9.227581
H    -4.680283  0.442990  8.588661
N    -3.326326  -3.212789  2.152815
C    -2.601233  -4.362625  2.650390
H    -4.138545  -3.403935  1.555441
H    -1.842432  -4.080341  3.383485
H    -2.126807  -4.901850  1.811545
H    -3.315234  -5.064729  3.109397
Hg    2.978655  -0.825880  1.777240
