35
Energy: -571611.1844521  eV PBE+vdW (tier 2 basis)
C    -1.930120  -2.315194  0.381444
C    -0.935153  -1.539786  1.170331
O    0.275514  -1.907822  1.334780
H    -1.908857  -3.364472  0.713943
H    -1.642679  -2.310528  -0.681175
H    -2.956502  -1.952082  0.483753
N    -1.223317  -0.344034  1.737106
C    -2.241629  0.608949  1.325055
C    -1.497655  1.921129  0.913135
O    -0.533753  2.282230  1.580888
H    -0.446058  0.069547  2.268008
H    -2.796325  0.191665  0.477117
C    -3.271141  0.961240  2.461046
C    -2.710725  1.525782  3.771441
C    -3.840962  2.027595  4.700634
C    -3.285453  2.597305  6.007089
N    -4.394640  3.097688  6.922562
H    -3.828123  0.029836  2.646696
H    -3.985015  1.668078  2.012433
H    -2.020263  2.360561  3.562824
H    -2.119481  0.758167  4.294205
H    -4.531133  1.197128  4.919626
H    -4.426063  2.801535  4.178567
H    -2.624609  3.456557  5.837289
H    -2.733175  1.846824  6.586202
H    -4.007899  3.479545  7.799635
H    -5.050467  2.345849  7.182757
H    -4.948315  3.848901  6.484132
N    -1.983447  2.603792  -0.153417
C    -1.326155  3.776279  -0.699146
H    -2.744529  2.194292  -0.695266
H    -2.087671  4.430412  -1.144978
H    -0.619839  3.499717  -1.503844
H    -0.756850  4.276133  0.093390
Hg    1.097689  -4.039435  1.377104
