35
Energy: -571610.5867772  eV PBE+vdW (tier 2 basis)
 C    0.14998   -0.38461    0.47588
 C   -0.20737   -0.29366    1.91276
 O    0.64568   -0.47756    2.84696
 H    0.87827    0.42104    0.26594
 H    0.64143   -1.34674    0.27966
 H   -0.68779   -0.26607   -0.20977
 N   -1.44819   -0.01360    2.40862
 C   -2.76848   -0.32403    1.87249
 C   -2.88277   -1.89803    1.65941
 O   -2.02081   -2.41933    0.95973
 H   -1.42277    0.11451    3.42444
 H   -3.44980   -0.03948    2.68414
 C   -3.14084    0.40878    0.55063
 C   -4.65110    0.57370    0.25652
 C   -5.39131    1.64749    1.09013
 C   -6.39782    2.51429    0.32814
 N   -7.66223    1.78470   -0.11878
 H   -2.69774   -0.13095   -0.29456
 H   -2.66966    1.40189    0.58596
 H   -5.16016   -0.40063    0.31567
 H   -4.68691    0.85634   -0.80776
 H   -4.66545    2.37840    1.47975
 H   -5.87383    1.21775    1.98206
 H   -5.96095    2.93900   -0.58471
 H   -6.74748    3.34270    0.95589
 H   -8.29515    2.43322   -0.61362
 H   -8.19124    1.40464    0.67982
 H   -7.46699    1.00810   -0.76622
 N   -3.89390   -2.57599    2.23238
 C   -4.85908   -2.13448    3.23406
 H   -3.83467   -3.58559    2.07325
 H   -4.41375   -2.09787    4.24034
 H   -5.67088   -2.87096    3.26109
 H   -5.28751   -1.15979    2.97902
Hg    2.86332   -0.05168    2.71417
