35
Energy: -571611.4092091  eV PBE+vdW (tier 2 basis)
 C   -1.60416    1.72662    2.85077
 C   -1.16229    0.36823    2.40815
 O   -0.31544    0.36917    1.43950
 H   -1.72632    2.37495    1.97239
 H   -0.79687    2.17435    3.45374
 H   -2.53303    1.70791    3.43193
 N   -1.65160   -0.70626    3.05059
 C   -1.74546   -2.17172    2.73987
 C   -0.48801   -2.99994    3.11506
 O    0.56983   -3.10028    2.37308
 H   -2.24217   -0.44101    3.83711
 H   -2.51672   -2.50311    3.44910
 C   -2.30245   -2.51594    1.33293
 C   -3.75133   -2.01148    1.13608
 C   -4.61251   -2.76170    0.09123
 C   -4.33508   -2.41198   -1.37221
 N   -5.37863   -3.03973   -2.28856
 H   -2.27343   -3.61470    1.26210
 H   -1.64510   -2.14376    0.53109
 H   -3.75564   -0.93345    0.91591
 H   -4.28672   -2.12229    2.09121
 H   -5.66015   -2.50847    0.31752
 H   -4.51876   -3.84850    0.24435
 H   -3.36472   -2.77708   -1.73051
 H   -4.39095   -1.33116   -1.55446
 H   -5.20208   -2.80563   -3.27792
 H   -6.33064   -2.70959   -2.06584
 H   -5.39051   -4.06866   -2.21777
 N   -0.53561   -3.72601    4.21224
 C    0.53643   -4.59836    4.71197
 H   -1.40841   -3.73914    4.74029
 H    0.34686   -5.63334    4.39416
 H    0.53077   -4.55370    5.80653
 H    1.49985   -4.26728    4.31564
Hg    0.96407   -1.33996    1.22274
