35
Energy: -571611.3384624  eV PBE+vdW (tier 2 basis)
C    -0.311457  1.180786  0.484237
C    -0.500789  -0.224103  0.963428
O    0.153735  -1.106381  0.298409
H    -0.338545  1.196722  -0.614125
H    0.697142  1.515743  0.774723
H    -1.061567  1.874278  0.881587
N    -1.302612  -0.433781  2.022259
C    -1.963616  -1.638187  2.616699
C    -1.034575  -2.480426  3.522827
O    -0.299098  -3.451195  3.070930
H    -1.656939  0.439106  2.408578
H    -2.699162  -1.190268  3.295725
C    -2.778559  -2.504865  1.620194
C    -3.960849  -1.731938  0.999938
C    -4.849876  -2.517641  0.005533
C    -5.875253  -3.446178  0.662653
N    -6.861368  -3.994954  -0.361097
H    -3.129301  -3.379569  2.189225
H    -2.140654  -2.903634  0.815055
H    -4.591848  -1.319300  1.803763
H    -3.571193  -0.863776  0.450220
H    -4.223080  -3.083095  -0.702109
H    -5.389632  -1.767621  -0.592949
H    -6.484942  -2.917618  1.406518
H    -5.424702  -4.323147  1.143339
H    -7.387081  -3.240410  -0.829067
H    -7.556136  -4.615502  0.083142
H    -6.394430  -4.542848  -1.099518
N    -1.019577  -2.318241  4.831285
C    -1.819776  -1.479788  5.729372
H    -0.365823  -2.950768  5.308353
H    -1.132649  -0.978633  6.423870
H    -2.500777  -2.114462  6.312449
H    -2.389395  -0.722921  5.185576
Hg    0.617383  -3.022383  1.171977
