35
Energy: -571611.3404161  eV PBE+vdW (tier 2 basis)
C    -0.139206  -0.292790  -0.025113
C    -0.104501  -0.154858  1.463477
O    1.046430  0.122606  1.952665
H    0.300636  0.607551  -0.479151
H    -1.156211  -0.434173  -0.410163
H    0.497859  -1.139319  -0.321182
N    -1.243168  -0.327245  2.160448
C    -1.534053  0.026352  3.564492
C    -1.105441  -1.092544  4.554903
O    -0.049415  -0.906575  5.280483
H    -2.052375  -0.552580  1.583323
H    -0.882527  0.875272  3.831135
C    -2.989071  0.546014  3.681164
C    -3.406667  1.075760  5.069145
C    -4.879331  1.543702  5.043582
C    -5.505237  1.963119  6.378599
N    -5.263153  3.421411  6.759410
H    -3.693360  -0.233733  3.357927
H    -3.071924  1.358719  2.942832
H    -2.733738  1.896259  5.366304
H    -3.294861  0.287987  5.831417
H    -5.505395  0.712155  4.686084
H    -5.019579  2.341188  4.295557
H    -5.146400  1.364057  7.224890
H    -6.595966  1.862336  6.333681
H    -5.734778  3.645051  7.650339
H    -5.644893  4.066703  6.051257
H    -4.267057  3.648069  6.883330
N    -1.757437  -2.223024  4.742523
C    -3.016289  -2.717085  4.174413
H    -1.310909  -2.839810  5.429467
H    -3.134495  -2.401391  3.134721
H    -3.873585  -2.388294  4.776648
H    -2.979989  -3.811860  4.200843
Hg    1.548893  -0.015798  4.068510
