35
Energy: -571610.9529960  eV PBE+vdW (tier 2 basis)
C    0.256449  -0.515313  0.731980
C    0.048372  -0.099307  2.144032
O    0.648152  -0.659333  3.130995
H    1.277277  -0.226135  0.428882
H    -0.439811  -0.061986  0.021588
H    0.185512  -1.608510  0.655350
N    -0.812957  0.863637  2.519466
C    -1.865824  1.502158  1.755145
C    -2.068214  2.890578  2.456938
O    -1.930000  2.963221  3.672076
H    -0.795730  1.121768  3.515818
H    -1.526096  1.626499  0.718874
C    -3.239257  0.742222  1.716093
C    -4.028326  0.560084  3.031203
C    -5.192020  1.555058  3.209376
C    -6.023578  1.405571  4.486680
N    -7.055501  0.282099  4.426252
H    -2.996246  -0.238666  1.279048
H    -3.856378  1.249629  0.960017
H    -3.362696  0.612688  3.907350
H    -4.410574  -0.473534  3.024068
H    -5.855172  1.531370  2.328935
H    -4.799869  2.582473  3.246422
H    -6.604188  2.315572  4.677784
H    -5.406707  1.205066  5.371784
H    -7.603037  0.245080  5.300414
H    -6.631594  -0.647263  4.299578
H    -7.728485  0.424566  3.658094
N    -2.406107  3.924924  1.649632
C    -2.404692  5.306910  2.104031
H    -2.456867  3.764385  0.643617
H    -3.156702  5.863363  1.528075
H    -1.427319  5.786626  1.918472
H    -2.603648  5.335688  3.181024
Hg    2.752034  -1.479976  3.135946
