35
Energy: -571610.8051982  eV PBE+vdW (tier 2 basis)
C    -0.813454  -0.304347  -0.624044
C    -0.150570  0.006652  0.667048
O    1.007138  -0.386499  1.001173
H    -1.178693  -1.344603  -0.606502
H    -0.075169  -0.248444  -1.436051
H    -1.645883  0.365678  -0.861777
N    -0.780024  0.701683  1.666028
C    -2.199034  0.826450  1.858280
C    -2.707112  2.354665  1.623587
O    -3.751771  2.369038  0.982190
H    -0.165924  0.912779  2.458949
H    -2.706219  0.283146  1.056429
C    -2.715846  0.322684  3.236658
C    -4.254311  0.181842  3.348391
C    -4.972133  1.332071  4.077407
C    -6.500303  1.244060  4.122234
N    -7.041046  0.226496  5.123774
H    -2.313120  0.941013  4.052165
H    -2.260917  -0.673531  3.352095
H    -4.433219  -0.769109  3.875002
H    -4.692344  0.044721  2.346494
H    -4.767770  2.287027  3.570749
H    -4.573820  1.452365  5.098300
H    -6.933121  0.972707  3.150951
H    -6.930872  2.204476  4.428895
H    -8.073085  0.242877  5.132727
H    -6.730522  0.433378  6.084916
H    -6.760977  -0.739952  4.906480
N    -2.075109  3.409228  2.131574
C    -0.837461  3.487292  2.910905
H    -2.501914  4.299853  1.868155
H    -0.810938  4.474569  3.385486
H    0.052513  3.403235  2.273394
H    -0.819444  2.746952  3.719685
Hg    2.869167  -0.724461  -0.355876
