35
Energy: -571611.1299753  eV PBE+vdW (tier 2 basis)
C    0.613415  -0.494623  0.341589
C    0.111647  -0.161417  1.705931
O    0.858941  -0.098012  2.739715
H    1.174046  -1.439432  0.374350
H    1.300728  0.303510  0.011107
H    -0.184268  -0.580204  -0.403953
N    -1.209264  0.048338  1.877128
C    -1.885743  0.294588  3.137479
C    -2.374538  -1.098116  3.710759
O    -3.116023  -1.776291  3.013444
H    -1.807928  -0.198048  1.085062
H    -1.147410  0.720915  3.834660
C    -3.109326  1.221746  2.912794
C    -3.909479  1.511766  4.196663
C    -5.281140  2.193440  3.984421
C    -5.220021  3.672981  3.602529
N    -6.614191  4.287588  3.590581
H    -3.762955  0.745254  2.165351
H    -2.721958  2.148255  2.463531
H    -3.302441  2.106497  4.896850
H    -4.128339  0.565028  4.711725
H    -5.831162  2.097435  4.933677
H    -5.858665  1.632999  3.232013
H    -4.809010  3.846633  2.600566
H    -4.639476  4.261573  4.324300
H    -6.583920  5.287242  3.338000
H    -7.067230  4.221924  4.515015
H    -7.236574  3.820825  2.913717
N    -1.935374  -1.462475  4.939070
C    -2.200279  -2.775886  5.502031
H    -1.270494  -0.858518  5.419807
H    -1.411207  -3.500432  5.232889
H    -3.151268  -3.152397  5.103915
H    -2.212264  -2.689969  6.596351
Hg    3.132062  0.320282  2.576696
