35
Energy: -571610.9060918  eV PBE+vdW (tier 2 basis)
C    -0.982024  -1.223141  0.781263
C    -0.036633  -0.115787  1.063663
O    1.127871  -0.172578  0.526145
H    -1.229853  -1.254197  -0.290432
H    -1.881571  -1.174623  1.403240
H    -0.459109  -2.172990  0.989577
N    -0.325777  0.916684  1.893936
C    -1.518876  1.769677  1.885137
C    -1.289420  2.830842  0.768127
O    -0.117843  3.238863  0.430247
H    0.501975  1.382518  2.274654
H    -2.388683  1.151822  1.617952
C    -1.697710  2.391276  3.298820
C    -3.047686  3.058270  3.627182
C    -3.024210  3.616696  5.068957
C    -4.251683  4.406340  5.536318
N    -5.363441  3.544638  6.130034
H    -0.881703  3.113437  3.466569
H    -1.528876  1.562327  4.002895
H    -3.861052  2.325373  3.497735
H    -3.249942  3.893328  2.937451
H    -2.180990  4.318110  5.155958
H    -2.797969  2.813953  5.789860
H    -4.715702  4.991388  4.732473
H    -3.975032  5.099842  6.339007
H    -6.148468  4.134540  6.448679
H    -5.034194  3.017833  6.953135
H    -5.750766  2.865648  5.460817
N    -2.345740  3.386373  0.197108
C    -2.318493  4.402427  -0.859243
H    -3.264764  3.126421  0.555670
H    -2.415824  5.405642  -0.418617
H    -3.165316  4.225964  -1.531893
H    -1.371709  4.345943  -1.402847
Hg    1.675067  1.917183  -0.015041
