36
Energy: -574590.504492 eV PBE+vdW (tier 2 basis)
C    -0.028969  0.315846  0.364853
C    -0.127906  -0.129144  1.795364
O    0.898076  -0.403188  2.448745
H    0.544335  -0.431475  -0.198370
H    0.544136  1.251912  0.327354
H    -0.997295  0.468981  -0.123108
N    -1.377645  -0.215080  2.318572
C    -1.827269  -0.662166  3.647909
C    -1.391417  0.304415  4.766490
O    -0.194161  0.522485  5.178326
H    -2.130469  0.045162  1.689253
H    -2.911422  -0.504239  3.577797
C    -1.755595  -2.197228  3.961273
C    -0.553718  -2.924804  4.595623
C    0.594283  -3.356332  3.656988
N    1.737902  -3.922188  4.381123
C    2.890041  -3.301271  4.707635
N    3.942353  -4.067671  5.048499
N    3.020605  -1.966463  4.698112
H    -2.033347  -2.695508  3.019871
H    -2.603313  -2.373284  4.638466
H    -0.961885  -3.839290  5.051763
H    -0.168111  -2.367563  5.467822
H    0.956130  -2.542585  3.016312
H    0.229442  -4.134714  2.973225
H    1.678765  -4.903493  4.635091
H    4.007082  -5.037584  4.760122
H    4.742581  -3.677672  5.532322
H    3.971364  -1.613275  4.760097
N    -2.351663  1.002605  5.350695
C    -2.130289  1.972389  6.428329
H    -3.301742  0.890593  5.008584
H    -1.615446  2.860518  6.041109
H    -1.520225  1.521399  7.218328
H    -3.102739  2.262032  6.834172
Hg    1.481529  -0.641117  4.796254
