36
Energy: -574588.009156 eV PBE+vdW (tier 2 basis)
C    0.054038  0.521638  -0.319341
C    0.083438  0.802800  1.156959
O    1.121180  1.327762  1.634482
H    0.415251  1.404905  -0.859024
H    -0.942126  0.246299  -0.685737
H    0.760067  -0.294168  -0.529553
N    -1.014967  0.468033  1.869160
C    -1.297762  0.746464  3.282456
C    -0.712676  -0.386810  4.164624
O    0.476114  -0.330835  4.595104
H    -1.765946  0.033722  1.339540
H    -0.731962  1.647942  3.566870
C    -2.799087  1.015572  3.494507
C    -3.282962  2.453888  3.216337
C    -3.092483  3.032532  1.811178
N    -3.742753  2.240736  0.776963
C    -3.351362  2.177303  -0.537661
N    -2.403297  3.056834  -0.968706
N    -3.737274  1.242518  -1.376022
H    -3.037597  0.814286  4.548297
H    -3.387132  0.290919  2.905197
H    -2.789971  3.144152  3.916431
H    -4.350755  2.494755  3.480088
H    -2.026878  3.110418  1.545781
H    -3.487653  4.064796  1.812571
H    -4.624975  1.787484  0.999779
H    -2.176809  2.977399  -1.957224
H    -2.357727  3.994640  -0.583500
H    -4.505370  0.659808  -1.025279
N    -1.464006  -1.442204  4.445347
C    -0.999894  -2.585535  5.240927
H    -2.437988  -1.431808  4.157367
H    -0.992479  -2.332101  6.308601
H    0.013528  -2.861404  4.932411
H    -1.680222  -3.424054  5.070215
Hg    1.972476  1.297644  3.844568
