36
Energy: -574589.146437 eV PBE+vdW (tier 2 basis)
C    0.330643  -0.038683  0.982256
C    0.919094  -0.928396  2.064851
O    2.156382  -1.131585  2.032963
H    -0.203420  -0.667843  0.256934
H    1.152176  0.463750  0.466223
H    -0.359306  0.701364  1.397688
N    0.174930  -1.415405  3.085126
C    -1.139073  -2.027382  3.142219
C    -0.981031  -3.547820  2.767309
O    -0.047905  -4.219513  3.262616
H    -6.205507  3.172220  4.271107
H    -1.386684  -2.048862  4.218086
C    -2.292851  -1.243905  2.464066
C    -3.661132  -1.525380  3.112285
C    -4.838567  -0.774965  2.466555
N    -4.864896  0.675067  2.703049
C    -5.619564  1.311700  3.615535
N    -6.174691  0.646444  4.635543
N    -5.814093  2.632987  3.507171
H    -2.325029  -1.426263  1.378602
H    -2.060928  -0.177227  2.587521
H    -3.606282  -1.279378  4.184580
H    -3.909130  -2.596769  3.067902
H    -5.790507  -1.193389  2.820125
H    -4.837616  -0.917740  1.376823
H    -4.370237  1.266500  2.043981
H    -6.897924  1.071805  5.204278
H    -5.898417  -0.296696  4.873906
H    -5.652535  3.124307  2.635927
N    -1.858898  -4.117534  1.941852
C    -1.794354  -5.535530  1.572619
H    -2.597844  -3.552852  1.542686
H    -2.011459  -6.169419  2.440806
H    -0.793107  -5.781029  1.201055
H    -2.532272  -5.724553  0.788615
Hg    1.815018  -2.721909  3.870411
