36
Energy: -574587.786381 eV PBE+vdW (tier 2 basis)
C    -0.839936  1.311860  -0.018794
C    -0.439451  0.612405  1.238962
O    0.682852  0.876502  1.756191
H    -1.246663  2.304896  0.227635
H    -1.571709  0.740809  -0.599320
H    0.058491  1.484768  -0.624280
N    -1.248806  -0.308095  1.823089
C    -2.690057  -0.166647  2.030735
C    -2.905618  0.816621  3.207674
O    -2.043176  0.968540  4.129197
H    -0.787232  -0.831902  2.568787
H    -3.127013  0.282491  1.128907
C    -3.316245  -1.552999  2.302643
C    -3.530360  -2.407328  1.033540
C    -4.984723  -2.424515  0.504569
N    -5.528563  -1.087971  0.276107
C    -6.163340  -0.307988  1.205283
N    -6.813923  -0.896990  2.233689
N    -6.066329  1.016674  1.218700
H    -4.260187  -1.420205  2.847548
H    -2.657236  -2.083988  3.005437
H    -3.266181  -3.454223  1.236116
H    -2.848265  -2.081853  0.233284
H    -5.632859  -2.965872  1.203624
H    -5.023552  -2.972802  -0.446399
H    -5.178901  -0.588000  -0.537258
H    -7.370528  -0.280799  2.818146
H    -7.128583  -1.858874  2.173887
H    -5.715441  1.399217  0.334149
N    -4.058473  1.469152  3.260550
C    -4.397998  2.450792  4.288972
H    -4.796346  1.277219  2.541409
H    -5.224055  3.062770  3.914604
H    -3.531918  3.081515  4.515366
H    -4.714737  1.947963  5.213299
Hg    0.372990  1.133794  4.097319
