36
Energy: -574588.72674 eV PBE+vdW (tier 2 basis)
C    -0.056851  1.327835  0.231711
C    0.262079  0.163051  1.113030
O    1.342452  -0.465848  0.969413
H    0.432739  2.233011  0.622182
H    -1.133306  1.506793  0.140547
H    0.372672  1.139485  -0.759093
N    -0.612931  -0.235822  2.080780
C    -1.345736  0.656819  2.969377
C    -0.397741  1.050447  4.128100
O    0.611721  0.281248  4.463882
H    -0.326706  -1.107971  2.528917
H    -1.606124  1.569482  2.416874
C    -2.640700  -0.037629  3.457702
C    -3.648217  0.886831  4.152056
C    -4.924098  0.126019  4.528691
N    -5.896862  1.030642  5.154143
C    -6.981463  0.650285  5.845717
N    -7.708038  1.565891  6.502634
N    -7.333009  -0.640171  5.903267
H    -2.366616  -0.870343  4.125234
H    -3.102652  -0.484267  2.564618
H    -3.907789  1.716006  3.473341
H    -3.204852  1.334196  5.052150
H    -4.685778  -0.674539  5.245360
H    -5.364700  -0.336578  3.629350
H    -5.807429  2.020934  4.949280
H    -8.629593  1.348488  6.863040
H    -7.360610  2.503367  6.662912
H    -6.965734  -1.319248  5.249181
N    -0.713977  2.052284  4.871288
C    0.139130  2.787121  5.751149
H    -8.054489  -0.957586  6.540022
H    -0.058431  2.480669  6.792202
H    -0.148997  3.850342  5.703232
H    1.207345  2.676661  5.524193
Hg    2.304713  -0.598173  3.205525
