36
Energy: -574587.79304 eV PBE+vdW (tier 2 basis)
C    -0.248845  0.271104  0.381242
C    -0.594474  0.507419  1.814813
O    0.226533  1.163211  2.523255
H    -1.119714  0.303375  -0.278819
H    0.477673  1.031299  0.073328
H    0.244988  -0.707844  0.286136
N    -1.764156  0.102891  2.385739
C    -2.412060  -1.208707  2.253170
C    -1.421363  -2.237165  2.869051
O    -0.201332  -1.942222  2.976094
H    -1.871088  0.502635  3.318955
H    -3.300440  -1.161171  2.902628
C    -2.893610  -1.599698  0.840380
C    -3.789689  -0.556893  0.153273
C    -5.126422  -0.244850  0.844860
N    -6.086993  -1.340432  0.819442
C    -6.554267  -1.975635  1.937489
N    -7.725351  -2.644813  1.836921
N    -5.804692  -1.906723  3.029644
H    -3.446866  -2.543548  0.937365
H    -2.039304  -1.826817  0.190081
H    -3.978424  -0.900022  -0.874522
H    -3.264769  0.403881  0.054099
H    -5.587956  0.611534  0.328681
H    -4.992541  0.046902  1.891965
H    -6.576948  -1.501996  -0.057430
H    -8.042019  -3.240186  2.592521
H    -8.349581  -2.546566  1.043293
H    -6.293248  -2.317531  3.833230
N    -1.855958  -3.429473  3.290660
C    -3.174100  -4.033183  3.164709
H    -1.124369  -3.996835  3.722666
H    -3.250245  -4.621222  2.237972
H    -3.959608  -3.261494  3.163226
H    -3.328330  -4.707636  4.013609
Hg    1.011797  -0.162737  4.308311
