36
Energy: -574588.150012 eV PBE+vdW (tier 2 basis)
C    2.863863  -1.112344  3.311185
C    1.541528  -1.108278  4.022266
O    1.393034  -1.820037  5.042163
H    3.603856  -0.602463  3.944010
H    2.824801  -0.617184  2.334138
H    3.201950  -2.147679  3.187302
N    0.553774  -0.327651  3.513146
C    -0.722883  -0.106061  4.176926
C    -1.612787  -1.377358  4.198090
O    -1.975788  -1.849621  5.309530
H    0.795477  0.262521  2.721911
H    -0.521788  0.074003  5.246442
C    -1.433773  1.150406  3.636012
C    -2.720246  1.484090  4.409588
C    -3.341187  2.836975  4.045825
N    -3.890422  2.849702  2.705760
C    -4.294839  3.938380  1.980034
N    -4.181823  5.176370  2.508544
N    -4.756930  3.629694  0.779984
H    -1.639481  1.046560  2.560662
H    -0.720904  1.983640  3.739376
H    -2.505909  1.512788  5.487575
H    -3.476913  0.693643  4.279229
H    -2.585301  3.637409  4.126444
H    -4.133417  3.072225  4.781255
H    -4.167671  1.977581  2.260590
H    -4.458477  5.980283  1.956630
H    -3.968815  5.348238  3.484573
H    -5.049254  4.452748  0.239834
N    -2.034831  -1.972315  3.079856
C    -1.883117  -1.584231  1.680235
H    -2.612528  -2.795135  3.260068
H    -1.830459  -2.498309  1.078395
H    -0.959442  -1.023636  1.522914
H    -2.743262  -0.995788  1.332630
Hg    -0.183665  -2.013490  6.906504
