36
Energy: -574588.982308 eV PBE+vdW (tier 2 basis)
C    0.449647  -1.998884  0.178249
C    0.193201  -0.973721  1.256406
O    0.285939  0.258121  0.702438
H    1.475022  -1.895423  -0.198674
H    -0.224618  -1.827843  -0.671270
H    0.296233  -3.001032  0.587929
N    -0.063486  -1.372973  2.458690
C    -0.612571  -0.576655  3.552110
C    0.483257  0.013569  4.468953
O    0.946128  1.205108  4.292583
H    -4.992219  -5.609461  2.002986
H    -1.184520  0.318050  3.213535
C    -1.634356  -1.453135  4.312983
C    -2.855486  -1.768926  3.439489
C    -3.975996  -2.539087  4.154046
N    -3.678979  -3.946631  4.458660
C    -4.066390  -5.007694  3.734610
N    -4.013241  -6.234591  4.273740
N    -4.498397  -4.861574  2.475771
H    -1.957383  -0.926350  5.224868
H    -1.137386  -2.393132  4.605108
H    -2.525569  -2.311830  2.541029
H    -3.302242  -0.824686  3.089721
H    -4.896466  -2.510640  3.555356
H    -4.227900  -2.056930  5.108693
H    -3.229013  -4.149946  5.344526
H    -4.114673  -7.065273  3.702339
H    -3.962489  -6.370973  5.276196
H    -4.383289  -3.992778  1.971315
N    0.970126  -0.707033  5.459467
C    2.041386  -0.273615  6.360695
H    0.559562  -1.623633  5.611669
H    1.628593  0.302322  7.198727
H    2.748934  0.354758  5.811693
H    2.552423  -1.160802  6.745180
Hg    0.611718  1.663893  2.191800
