36
Energy: -574587.928385 eV PBE+vdW (tier 2 basis)
C    -0.560587  1.715307  1.334437
C    -0.307640  0.686735  2.389161
O    0.710682  0.722887  3.134143
H    -1.373135  1.467914  0.646502
H    0.359898  1.873518  0.760253
H    -0.809675  2.665245  1.831313
N    -1.147022  -0.353583  2.606691
C    -2.211903  -0.898798  1.775761
C    -3.399544  -1.181418  2.768202
O    -3.315911  -2.144723  3.524382
H    -0.861088  -0.948531  3.390063
H    -2.514209  -0.142865  1.040588
C    -1.776150  -2.202770  1.080183
C    -2.873282  -2.851460  0.228566
C    -2.393396  -4.196869  -0.358187
N    -3.419479  -4.905860  -1.108121
C    -3.664491  -4.773352  -2.444303
N    -4.608825  -5.552536  -3.019625
N    -3.074276  -3.897890  -3.248186
H    -1.451707  -2.904812  1.863168
H    -0.894416  -1.971557  0.463194
H    -3.177446  -2.186971  -0.595755
H    -3.768787  -3.037374  0.839878
H    -2.077719  -4.865482  0.454782
H    -1.512761  -4.055209  -1.000756
H    -4.043622  -5.501700  -0.568945
H    -4.780252  -5.411819  -4.010663
H    -5.023412  -6.361299  -2.570233
H    -2.289697  -3.414850  -2.797281
N    -4.424586  -0.312633  2.729122
C    -5.614816  -0.462828  3.565669
H    -4.425282  0.412922  2.019864
H    -6.017643  0.530534  3.788582
H    -5.331258  -0.970098  4.493431
H    -6.386535  -1.056924  3.058090
Hg    1.889973  2.682651  3.938902
