36
Energy: -574587.893818 eV PBE+vdW (tier 2 basis)
C    -0.062121  -1.054849  0.090547
C    0.063873  -0.021140  1.171474
O    0.876366  0.923732  0.979886
H    -0.796906  -1.832807  0.326541
H    0.920345  -1.509725  -0.088480
H    -0.358035  -0.552303  -0.840744
N    -0.709909  -0.164225  2.270037
C    -1.029409  0.849378  3.280484
C    -0.127202  0.693513  4.524943
O    1.130974  0.829889  4.425355
H    -1.294970  -0.994183  2.271655
H    -0.712490  1.819334  2.860116
C    -2.559448  0.967691  3.492441
C    -3.445179  -0.294244  3.568299
C    -3.296267  -1.259685  4.750122
N    -3.497324  -0.576989  6.032069
C    -3.325069  -1.177558  7.278112
N    -2.790259  -2.424372  7.320121
N    -3.539863  -0.573731  8.419103
H    -2.935246  1.547239  2.637851
H    -2.726181  1.621626  4.361332
H    -3.355959  -0.889083  2.646047
H    -4.486611  0.061999  3.542506
H    -2.295884  -1.724078  4.768677
H    -4.026258  -2.077974  4.619741
H    -4.218765  0.142682  6.036434
H    -2.667969  -2.815717  8.250963
H    -2.867690  -3.080659  6.552079
H    -3.961436  0.356349  8.321338
N    -0.658428  0.434964  5.709853
C    0.120683  0.329242  6.945675
H    -1.670723  0.278073  5.780507
H    0.869619  1.127393  6.984723
H    0.636470  -0.638369  6.998170
H    -0.565611  0.420101  7.792768
Hg    2.064348  2.004708  2.651139
