36
Energy: -574589.946223 eV PBE+vdW (tier 2 basis)
C    0.681449  1.087956  -0.043882
C    0.347358  0.504624  1.284920
O    1.246977  -0.228895  1.925635
H    1.582953  1.713141  0.020838
H    -0.139103  1.676370  -0.465960
H    0.922267  0.261928  -0.730132
N    -0.850532  0.644696  1.781897
C    -1.461026  0.110279  3.005966
C    -2.935020  0.605266  2.847471
O    -3.143239  1.495091  2.009348
H    -1.593896  1.224473  1.307722
H    -1.406761  -0.987158  2.971881
C    -0.814057  0.593684  4.328311
C    -0.612021  2.109051  4.473316
C    0.193042  2.513300  5.725886
N    1.561661  1.963772  5.696552
C    2.691614  2.575502  5.271442
N    2.960907  3.829694  5.638370
N    3.531553  1.870363  4.478405
H    0.137819  0.049455  4.435482
H    -1.442738  0.226035  5.151270
H    -1.585975  2.617484  4.526084
H    -0.112200  2.528941  3.584073
H    -0.293015  2.162007  6.645487
H    0.251973  3.605736  5.789608
H    1.642641  0.955570  5.793367
H    3.683049  4.375739  5.179341
H    2.536405  4.228984  6.470614
H    4.493818  2.190444  4.374396
N    -3.894819  0.078142  3.617582
C    -3.826278  -1.038018  4.556689
H    -4.812368  0.491264  3.455938
H    -4.735212  -1.640959  4.455675
H    -3.758009  -0.689363  5.596450
H    -2.975364  -1.690618  4.335044
Hg    2.587986  0.764971  3.063475
