36
Energy: -574589.46065 eV PBE+vdW (tier 2 basis)
C    -0.154900  -0.161519  2.311373
C    0.169915  0.958378  1.346857
O    1.367005  1.233867  1.118705
H    0.007575  -1.111745  1.781096
H    -1.182813  -0.127000  2.684120
H    0.557175  -0.134048  3.143351
N    -0.826401  1.707761  0.790324
C    -2.097511  1.247683  0.306380
C    -2.050550  1.055606  -1.268775
O    -1.255148  1.669883  -2.017409
H    -0.779081  3.430020  2.151817
H    -2.300276  0.234068  0.696793
C    -3.256951  2.204804  0.668926
C    -3.846385  2.016211  2.077215
C    -3.054953  2.556404  3.274181
N    -2.989961  4.024028  3.326143
C    -1.884209  4.777084  3.253390
N    -1.901198  6.032034  3.722844
N    -0.763104  4.291633  2.698285
H    -4.074040  2.057574  -0.050212
H    -2.915837  3.240316  0.511838
H    -4.028653  0.946299  2.264552
H    -4.844098  2.479750  2.091450
H    -2.029938  2.170617  3.313786
H    -3.543100  2.221478  4.200357
H    -3.848107  4.505460  3.581023
H    -1.178599  6.697987  3.475376
H    -2.625991  6.352687  4.354619
H    0.133222  4.719494  2.896968
N    -2.948095  0.213853  -1.767126
C    -3.122121  -0.039873  -3.201717
H    -3.588399  -0.242657  -1.123407
H    -3.700517  0.765746  -3.671300
H    -3.654104  -0.987528  -3.322389
H    -2.141498  -0.104126  -3.683747
Hg    0.536519  2.626158  -0.777766
