36
Energy: -574588.310423 eV PBE+vdW (tier 2 basis)
C    0.528951  0.123922  -0.605253
C    0.125144  -0.532858  0.682712
O    0.419802  -1.759140  0.814438
H    0.148730  1.146300  -0.707167
H    0.159531  -0.484919  -1.441286
H    1.625209  0.127056  -0.674780
N    -0.525925  0.224251  1.587368
C    -1.290188  -0.116541  2.805977
C    -0.429566  -0.247677  4.074161
O    0.700365  -0.850401  4.127785
H    -0.596844  1.200457  1.316455
H    -1.895428  0.780215  2.973840
C    -2.264365  -1.313578  2.638238
C    -3.544527  -1.015291  1.833025
C    -4.732361  -0.393332  2.601623
N    -4.656435  1.042863  2.864092
C    -4.013364  1.632958  3.907432
N    -3.796940  2.971766  3.848794
N    -3.518779  0.982663  4.956561
H    -2.533018  -1.677540  3.640709
H    -1.739698  -2.147060  2.150839
H    -3.915531  -1.973281  1.441812
H    -3.315182  -0.405716  0.945485
H    -4.903506  -0.934990  3.544112
H    -5.641513  -0.542646  2.006619
H    -5.138755  1.644855  2.202207
H    -3.596173  3.440021  4.726686
H    -4.201545  3.545529  3.117067
H    -3.886575  0.028510  5.006823
N    -0.908800  0.323116  5.161329
C    -0.321928  0.191485  6.490991
H    -1.867426  0.806567  5.098033
H    -1.112962  0.364040  7.227954
H    0.460637  0.949586  6.634740
H    0.121857  -0.800375  6.626252
Hg    1.080485  -2.625522  2.814862
