36
Energy: -574589.175185 eV PBE+vdW (tier 2 basis)
C    -0.919112  0.572843  1.111578
C    -0.809866  0.009740  2.518177
O    0.173920  0.400775  3.197536
H    -0.387123  1.527862  1.083230
H    -1.953712  0.704574  0.786243
H    -0.405162  -0.118482  0.428548
N    -1.734649  -0.805958  3.065801
C    -2.466786  -1.948877  2.562016
C    -1.563611  -3.233922  2.708931
O    -0.789176  -3.362199  3.687985
H    -4.503816  2.720136  -2.954206
H    -3.268219  -2.122443  3.303519
C    -3.197539  -1.771691  1.210072
C    -4.323872  -0.727749  1.307275
C    -5.207919  -0.619648  0.055503
N    -4.596892  0.070143  -1.091205
C    -4.840605  1.336971  -1.467869
N    -5.402977  2.210567  -0.623920
N    -4.498053  1.738852  -2.700133
H    -3.675772  -2.731593  0.959682
H    -2.490117  -1.542108  0.401218
H    -3.919560  0.260590  1.572079
H    -4.988719  -1.009462  2.138209
H    -6.145892  -0.103542  0.299807
H    -5.505049  -1.618174  -0.294985
H    -4.056819  -0.491063  -1.741217
H    -5.780898  3.089930  -0.957620
H    -5.524032  2.002433  0.358445
H    -4.331804  1.074965  -3.447279
N    -1.676125  -4.216315  1.818433
C    -0.947302  -5.483585  1.941288
H    -2.319849  -4.110933  1.044682
H    -1.112448  -6.067325  1.032083
H    -1.304935  -6.049978  2.809728
H    0.123907  -5.289266  2.063759
Hg    -0.445376  -1.269996  4.852342
