36
Energy: -574590.098903 eV PBE+vdW (tier 2 basis)
C    -1.607454  -2.043932  0.988412
C    -1.686842  -1.587728  2.417143
O    -1.567843  -2.401112  3.354781
H    -1.884901  -1.274987  0.259492
H    -2.250476  -2.921556  0.853622
H    -0.577377  -2.369169  0.785082
N    -1.896626  -0.257139  2.614610
C    -1.960400  0.491210  3.880323
C    -0.571514  0.472532  4.568648
O    -0.094439  -0.504319  5.249360
H    -1.976304  0.307594  1.775030
H    -2.112832  1.526060  3.551933
C    -3.136080  0.165061  4.866584
C    -4.270418  -0.758470  4.365786
C    -4.952923  -1.588758  5.493359
N    -4.789775  -3.048081  5.338707
C    -3.689550  -3.761568  5.626544
N    -3.465119  -4.928822  5.023179
N    -2.759878  -3.368893  6.563886
H    -3.558600  1.130102  5.175849
H    -2.723363  -0.240324  5.804315
H    -3.892764  -1.459648  3.614086
H    -5.030561  -0.154378  3.855845
H    -6.033497  -1.412821  5.505388
H    -4.595804  -1.288248  6.486943
H    -5.526350  -3.521984  4.819936
H    -2.787049  -5.564287  5.432007
H    -4.008533  -5.256125  4.231383
H    -3.199177  -2.822585  7.309176
N    0.193504  1.538113  4.412576
C    1.548449  1.668638  4.961313
H    -0.168981  2.310926  3.861277
H    1.875928  2.702195  4.824951
H    2.236914  0.992813  4.439061
H    1.543999  1.420437  6.028320
Hg    -1.292633  -2.154877  5.775483
