36
Energy: -574587.468845 eV PBE+vdW (tier 2 basis)
C    0.020338  -0.510224  -0.556855
C    0.213821  0.029098  0.822682
O    1.392649  0.262946  1.229097
H    -0.368265  -1.539575  -0.504991
H    0.985816  -0.536003  -1.070110
H    -0.691086  0.096711  -1.128464
N    -0.822677  0.282121  1.656795
C    -2.030673  -0.542061  1.830667
C    -1.559103  -1.949704  2.255604
O    -0.377059  -2.167795  2.653329
H    -0.541476  0.801176  2.487302
H    -2.511307  -0.116268  2.726167
C    -3.046432  -0.463527  0.660817
C    -4.486082  -0.086299  1.040962
C    -5.276279  -1.003962  1.976765
N    -5.403404  -2.434921  1.609444
C    -5.848616  -2.888180  0.365892
N    -6.704583  -3.939207  0.374955
N    -5.349408  -2.309476  -0.699031
H    -3.040205  -1.384983  0.061425
H    -2.699593  0.328176  -0.014219
H    -5.038491  0.040687  0.102330
H    -4.492382  0.900156  1.531349
H    -6.287987  -0.576148  2.085531
H    -4.842247  -1.011525  2.987847
H    -5.750711  -2.988004  2.392791
H    -7.228374  -4.223863  1.196473
H    -6.908925  -4.435101  -0.486323
H    -5.755064  -2.682094  -1.565295
N    -2.432261  -2.951194  2.213992
C    -2.123912  -4.303204  2.682981
H    -3.353023  -2.792463  1.786745
H    -3.061541  -4.856240  2.788059
H    -1.613583  -4.259102  3.651051
H    -1.476669  -4.826840  1.967598
Hg    1.698728  -0.903816  3.245365
