19
Energy: -169126.3950337  eV PBE+vdW (tier 2 basis)
N    -0.08727  -0.61362  -0.01369
C    0.03752  -0.07499  1.31448
C    1.48876  0.33131  1.62591
O    1.97184  0.30235  2.73469
H    0.41007  -0.10472  -0.73966
H    -1.03184  -0.86674  -0.29215
H    -0.50831  0.89249  1.42056
C    -0.55386  -1.00402  2.38886
C    0.18561  -2.33717  2.49711
C    -0.44736  -3.32680  3.46181
O    0.27840  -4.30979  3.84282
O    -1.65188  -3.17961  3.84938
H    -1.61385  -1.17483  2.15456
H    -0.52338  -0.47671  3.34993
H    1.22685  -2.20672  2.81798
H    0.22601  -2.85474  1.52466
O    2.12740  0.77284  0.52310
H    3.02369  1.06034  0.78984
Cd    -1.41262  -5.05402  5.08436
