19
Energy: -169127.0740461  eV PBE+vdW (tier 2 basis)
N    0.19666  -0.19358  -0.21653
C    0.02652  -0.21920  1.28878
C    1.36790  -0.09489  2.01126
O    1.48666  -0.14688  3.20412
H    0.44257  0.75671  -0.50530
H    -0.70542  -0.41241  -0.65132
H    -0.51527  0.70279  1.55845
C    -0.86102  -1.38458  1.81937
C    -0.23700  -2.79408  2.04047
C    0.65361  -3.04773  0.84830
O    0.12289  -3.18553  -0.29998
O    1.90700  -2.79843  1.00414
H    -1.71756  -1.47320  1.13564
H    -1.26294  -1.04966  2.78316
H    -1.04588  -3.53077  2.09260
H    0.35158  -2.82452  2.96184
O    2.41073  0.14232  1.14317
H    3.21784  0.22142  1.69244
Cd    1.77728  -1.74033  -0.91850
