19
Energy: -169126.9908375  eV PBE+vdW (tier 2 basis)
N    -0.51496  0.64207  0.52873
C    0.04939  0.16711  1.77372
C    1.57330  0.35422  1.88530
O    2.22386  0.73236  2.88715
H    -0.16652  0.13991  -0.28727
H    -0.37675  1.64089  0.38194
H    -0.38228  0.77391  2.58376
C    -0.33450  -1.33370  2.00031
C    -1.02614  -1.65166  3.35423
C    -0.13264  -1.06980  4.42405
O    -0.41859  0.10314  4.86064
O    0.98679  -1.63211  4.66892
H    0.53946  -1.98799  1.88444
H    -1.04575  -1.58269  1.20123
H    -1.11255  -2.73735  3.47340
H    -2.01684  -1.18951  3.41140
O    2.21628  0.11893  0.75439
H    3.17755  0.25695  0.88562
Cd    1.76089  0.42433  5.05805
