19
Energy: -169127.0730142  eV PBE+vdW (tier 2 basis)
N    1.02664  -0.90645  0.43147
C    0.15971  -0.48829  1.60367
C    0.95160  -0.45577  2.91112
O    0.45130  -0.23889  3.98102
H    1.70030  -0.15974  0.24232
H    0.43168  -0.98635  -0.39956
H    -0.11217  0.56566  1.42365
C    -1.19498  -1.24718  1.71557
C    -1.24288  -2.63699  2.41568
C    -0.04391  -3.39601  1.90261
O    1.00951  -3.37819  2.64163
O    -0.01212  -3.74004  0.67686
H    -1.59967  -1.34292  0.69771
H    -1.87458  -0.58233  2.26213
H    -2.17591  -3.13838  2.13717
H    -1.18637  -2.53337  3.50299
O    2.29681  -0.63788  2.70873
H    2.72377  -0.57479  3.58782
Cd    2.10726  -2.93007  0.78942
