19
Energy: -169127.2537462  eV PBE+vdW (tier 2 basis)
N    0.06908  0.17346  0.30202
C    -0.64843  -0.23239  1.56754
C    0.07636  0.68055  2.63943
O    1.10338  1.24119  2.21835
H    0.87736  0.76305  0.77439
H    -0.49404  0.77017  -0.31065
H    -1.70189  0.06396  1.48544
C    -0.53190  -1.76246  1.81694
C    -1.87901  -2.48910  2.09060
C    -2.44935  -1.79920  3.30807
O    -1.95569  -2.09052  4.44931
O    -3.18520  -0.77039  3.11626
H    0.14844  -1.95558  2.65658
H    -0.07580  -2.24067  0.93756
H    -1.67814  -3.54536  2.29850
H    -2.56551  -2.39987  1.24146
O    -0.37054  0.82537  3.83018
H    0.42740  -0.61775  -0.23997
Cd    -2.08153  0.08856  4.88399
