19
Energy: -169127.4163427  eV PBE+vdW (tier 2 basis)
N    1.43758  -1.40460  1.60222
C    0.47322  -0.26532  1.61625
C    1.18437  0.93879  2.24546
O    2.31827  0.89830  2.72595
H    0.93190  -2.29219  1.55737
H    2.05011  -1.34653  0.78650
H    0.27476  0.04439  0.57719
C    -0.93079  -0.63183  2.20443
C    -1.15551  -0.73167  3.74414
C    0.12579  -1.24824  4.36413
O    0.89451  -0.36715  4.89447
O    0.51947  -2.42268  4.07980
H    -1.19935  -1.59113  1.73976
H    -1.63867  0.10695  1.80956
H    -1.98980  -1.41801  3.92669
H    -1.39557  0.24693  4.16992
O    0.46386  2.04508  2.16307
H    0.95762  2.78647  2.57219
Cd    2.52125  -1.28957  3.69687
