19
Energy: -169126.8325464  eV PBE+vdW (tier 2 basis)
N    -0.06970  0.24422  0.10354
C    -0.08619  0.06400  1.52852
C    1.33687  -0.14866  2.06665
O    2.27315  -0.53399  1.35428
H    0.19854  -0.58502  -0.42384
H    -0.94102  0.62536  -0.25584
H    -0.44313  1.00547  1.97814
C    -1.04857  -1.06326  2.10213
C    -1.03634  -2.43712  1.40410
C    0.39671  -2.93555  1.29579
O    1.04563  -3.15115  2.37215
O    0.95023  -2.92735  0.14618
H    -2.06246  -0.65516  1.99401
H    -0.86586  -1.20113  3.17777
H    -1.46843  -2.38642  0.39990
H    -1.61848  -3.14515  2.00661
O    1.56767  0.03931  3.35920
H    0.78691  0.39123  3.82745
Cd    2.91146  -2.67363  1.21426
