19
Energy: -169126.4308726  eV PBE+vdW (tier 2 basis)
N    0.28735  -0.06395  0.08530
C    0.05040  -0.05675  1.51163
C    1.46275  0.05589  2.10588
O    2.36502  -0.70659  1.95061
H    -0.53999  0.16111  -0.46090
H    0.73283  -0.91370  -0.25704
H    -0.51469  0.85626  1.74172
C    -0.69975  -1.30510  2.11120
C    -1.66979  -1.01256  3.28124
C    -1.01370  0.00318  4.19509
O    -0.01586  -0.35133  4.90322
O    -1.36305  1.22966  4.06603
H    0.03753  -2.06180  2.40847
H    -1.29371  -1.72711  1.29106
H    -1.86495  -1.93095  3.84615
H    -2.61485  -0.59651  2.91858
O    1.71139  1.27297  2.84955
H    2.69049  1.28482  2.93518
Cd    0.60313  1.80490  4.89836
