19
Energy: -169126.8927093  eV PBE+vdW (tier 2 basis)
N    0.28677  0.01927  -0.06200
C    -0.14785  0.28198  1.29722
C    1.02641  0.81451  2.12195
O    0.95213  1.58645  3.10599
H    0.51194  0.87097  -0.57564
H    -0.43286  -0.47882  -0.58343
H    -0.93393  1.05770  1.38470
C    -0.69420  -1.04641  1.93654
C    -2.10458  -0.95548  2.57739
C    -2.01605  0.15607  3.59568
O    -1.34438  -0.04465  4.66243
O    -2.39048  1.32804  3.23105
H    0.00742  -1.43896  2.68354
H    -0.72869  -1.78963  1.12976
H    -2.33935  -1.90735  3.06657
H    -2.87326  -0.71888  1.83423
O    2.20650  0.40005  1.71492
H    2.89979  0.77189  2.30077
Cd    -0.73332  2.09126  4.49134
