19
Energy: -169127.3217526  eV PBE+vdW (tier 2 basis)
N    0.79824  -1.01347  0.25956
C    0.37717  -0.19112  1.46134
C    1.59462  -0.22039  2.43015
O    1.36072  -0.06489  3.65199
H    1.68863  -0.66247  -0.11567
H    0.99152  -1.98612  0.64994
H    0.18795  0.83726  1.12640
C    -0.90221  -0.76704  2.11035
C    -0.98165  -2.29710  2.42754
C    0.36354  -2.80780  2.92274
O    0.62382  -2.84579  4.16676
O    1.26628  -2.98599  2.03430
H    -1.75618  -0.52654  1.46084
H    -1.03502  -0.19826  3.03769
H    -1.26122  -2.86676  1.53209
H    -1.75624  -2.44944  3.18515
O    2.70765  -0.61408  1.94141
H    0.08430  -1.03503  -0.47656
Cd    2.68112  -2.04096  3.78897
