19
Energy: -169127.3216114  eV PBE+vdW (tier 2 basis)
N    0.43061  0.11741  0.35364
C    0.17103  -0.10363  1.83059
C    1.49982  -0.67677  2.40286
O    1.42231  -1.39201  3.42968
H    1.27176  0.69417  0.22445
H    0.66035  -0.84994  -0.02996
H    -0.04841  0.86846  2.29152
C    -1.02283  -1.06094  2.04968
C    -1.07736  -2.41373  1.26552
C    0.31391  -3.02028  1.15511
O    1.09720  -2.49283  0.29241
O    0.72667  -3.85588  2.02005
H    -1.94886  -0.51525  1.81797
H    -1.03295  -1.26629  3.12617
H    -1.47128  -2.26151  0.25252
H    -1.75357  -3.09003  1.79707
O    2.53890  -0.55885  1.66871
H    -0.36915  0.53813  -0.13155
Cd    2.72885  -2.85023  2.07657
