19
Energy: -169126.4308348  eV PBE+vdW (tier 2 basis)
N    0.49182  -0.32887  -0.00940
C    -0.38949  -0.42081  1.13326
C    0.22781  0.56532  2.13694
O    1.32592  0.52141  2.59710
H    0.07688  -0.68405  -0.86683
H    1.41482  -0.73121  0.14526
H    -1.37243  -0.04843  0.81542
C    -0.55199  -1.84316  1.78916
C    -1.95737  -2.17400  2.34705
C    -2.49216  -0.93802  3.04244
O    -1.96913  -0.56946  4.14401
O    -3.31347  -0.20004  2.39142
H    0.20726  -1.96909  2.57162
H    -0.33435  -2.57086  0.99757
H    -1.89074  -2.99338  3.07149
H    -2.64834  -2.44888  1.54409
O    -0.60891  1.70165  2.46138
H    0.01775  2.32257  2.89482
Cd    -2.67244  1.50241  3.64842
