19
Energy: -169127.1496665  eV PBE+vdW (tier 2 basis)
N    0.68194  -0.16416  -0.21771
C    0.26245  -0.13842  1.21187
C    1.53556  -0.28546  2.07315
O    2.64120  -0.52911  1.59627
H    -0.10110  -0.44175  -0.81378
H    0.99974  0.76041  -0.51472
H    -0.12290  0.86998  1.44132
C    -0.92264  -1.11476  1.53359
C    -0.68364  -2.64362  1.71410
C    0.41979  -3.05584  0.75938
O    0.23007  -2.92377  -0.48961
O    1.58133  -3.22428  1.27646
H    -1.65145  -0.95849  0.72566
H    -1.41816  -0.74285  2.44142
H    -1.62093  -3.16496  1.48880
H    -0.38041  -2.88177  2.73822
O    1.43050  -0.08652  3.37878
H    0.52052  0.13606  3.65209
Cd    2.32212  -1.87869  -0.32229
