19
Energy: -169126.9297972  eV PBE+vdW (tier 2 basis)
N    -0.28460  0.30825  0.37852
C    -0.22995  -0.20806  1.73626
C    1.02351  0.37628  2.38832
O    1.11971  0.88406  3.52831
H    -1.22624  0.23903  -0.00247
H    0.35996  -0.16584  -0.25325
H    -1.08210  0.22704  2.27626
C    -0.26941  -1.77624  1.91433
C    -1.28901  -2.31500  2.95734
C    -1.04887  -1.53018  4.22577
O    0.01126  -1.75228  4.89929
O    -1.79151  -0.50397  4.43725
H    0.72799  -2.16849  2.15472
H    -0.54766  -2.18949  0.93578
H    -1.11117  -3.38248  3.12871
H    -2.32034  -2.16019  2.62382
O    2.08873  0.31613  1.61479
H    2.85750  0.71541  2.07283
Cd    -0.02604  0.42791  5.38534
