19
Energy: -169127.2532824  eV PBE+vdW (tier 2 basis)
N    0.29734  -0.23932  0.30524
C    0.04605  -0.24223  1.79439
C    1.50285  -0.51503  2.35241
O    1.79868  -0.38037  3.59042
H    0.27139  0.69650  -0.10950
H    -0.33060  -0.85458  -0.21945
H    -0.28102  0.76032  2.09814
C    -1.02049  -1.30361  2.18534
C    -2.18358  -0.77218  3.06982
C    -1.50912  -0.22388  4.30596
O    -1.13282  0.99865  4.28317
O    -1.09911  -1.05505  5.18462
H    -0.54145  -2.14503  2.70274
H    -1.46945  -1.72158  1.27224
H    -2.84729  -1.60532  3.32406
H    -2.75072  0.01473  2.56051
O    2.32294  -0.86139  1.48403
H    1.33656  -0.61958  0.33177
Cd    0.71081  0.23194  5.32909
