19
Energy: -169126.7793967  eV PBE+vdW (tier 2 basis)
N    1.35166  -0.83821  0.84928
C    0.10498  -0.54247  1.55089
C    0.59167  0.52597  2.54038
O    1.15039  0.30452  3.64099
H    1.25579  -0.89527  -0.15995
H    1.84314  -1.64997  1.21523
H    -0.56739  -0.01738  0.85932
C    -0.59243  -1.79625  2.10392
C    -1.94667  -1.63208  2.84741
C    -1.63137  -0.92231  4.14477
O    -1.03894  -1.58866  5.06585
O    -1.74391  0.34824  4.18413
H    0.10325  -2.35338  2.74834
H    -0.78466  -2.43183  1.22646
H    -2.35974  -2.62507  3.05651
H    -2.66719  -1.04654  2.26638
O    0.47112  1.74642  2.05070
H    0.93990  2.38715  2.62372
Cd    0.02741  0.26812  5.57666
