19
Energy: -169126.4706836  eV PBE+vdW (tier 2 basis)
N    -0.54033  0.54950  0.14586
C    -0.15987  0.16212  1.46791
C    1.35895  -0.03027  1.49605
O    2.07816  0.19042  0.54776
H    0.23960  0.78900  -0.46622
H    -1.36276  1.13466  0.04955
H    -0.37016  0.96523  2.20373
C    -0.95820  -1.07076  1.99469
C    -0.58567  -2.35140  1.26011
C    -1.53281  -3.52037  1.52773
O    -1.02675  -4.69257  1.48627
O    -2.76919  -3.31417  1.73792
H    -2.02812  -0.85969  1.86612
H    -0.76987  -1.16685  3.07140
H    0.42848  -2.69693  1.49105
H    -0.63467  -2.19772  0.16853
O    1.78599  -0.45731  2.70232
H    2.76182  -0.51524  2.66337
Cd    -3.04229  -5.55466  1.91896
