22
Energy: -568335.5655589  eV PBE+vdW (tier 2 basis)
N    -0.13286  -0.24381  -0.16821
C    0.02273  0.02593  1.26002
C    1.51156  0.22257  1.63906
O    2.37728  0.57899  0.83661
H    -1.01325  0.11957  -0.55295
H    -0.03322  -1.23116  -0.43252
H    2.66389  0.34812  3.15566
H    -0.40554  1.03004  1.43365
C    -0.84070  -0.91322  2.23080
C    -0.50541  -2.32732  2.54917
N    0.33349  -2.73098  3.58546
C    -1.09452  -3.49899  2.08661
C    0.26359  -4.05646  3.75210
N    -0.59779  -4.52847  2.83695
H    -1.85857  -0.88824  1.81917
H    -0.88712  -0.33776  3.16913
H    0.87500  -2.11970  4.19626
H    -1.84516  -3.65973  1.31869
H    0.79672  -4.64364  4.49718
H    -0.85662  -5.51487  2.74309
O    1.74710  0.06508  2.91844
Hg    1.62539  0.86007  -1.39637
