22
Energy: -568335.7068700  eV PBE+vdW (tier 2 basis)
N    1.80472  0.36016  3.76790
C    1.32855  -0.55353  2.83943
C    2.20957  -0.47750  1.41470
O    1.74600  -1.02381  0.41693
H    2.36082  0.06670  4.57075
H    1.50970  1.33623  3.76315
H    3.59548  0.50753  2.30040
H    1.57635  -1.57878  3.16346
C    -0.18581  -0.43646  2.43557
C    -1.13837  -0.96622  3.44959
N    -1.98288  -0.18504  4.22694
C    -1.44978  -2.28234  3.78522
C    -2.77306  -0.96030  4.98220
N    -2.44592  -2.23584  4.72004
H    -0.29516  -1.02372  1.50733
H    -0.42732  0.60480  2.17756
H    -2.06142  0.83281  4.20617
H    -1.05585  -3.22217  3.41143
H    -3.54444  -0.62024  5.67040
H    -2.89834  -3.04711  5.15112
O    3.36357  0.09830  1.43404
Hg    2.95755  -1.13946  -1.68833
