22
Energy: -568335.7562778  eV PBE+vdW (tier 2 basis)
N    0.50389  0.74686  0.54225
C    0.06893  0.02595  1.74461
C    1.21983  -0.84836  2.32280
O    2.41090  -0.71863  2.03529
H    0.13258  1.70206  0.48269
H    0.29749  0.25383  -0.33586
H    1.52652  -2.23971  3.59711
H    -0.11787  0.77978  2.52750
C    -1.26189  -0.82253  1.47941
C    -2.31809  -0.71402  2.53132
N    -3.61073  -0.27857  2.25966
C    -2.33396  -1.07817  3.87430
C    -4.37914  -0.38610  3.35062
N    -3.60361  -0.86527  4.33561
H    -0.98754  -1.87720  1.33722
H    -1.68956  -0.48838  0.52457
H    -3.97434  0.02694  1.35539
H    -1.55284  -1.47689  4.51094
H    -5.43677  -0.13979  3.42241
H    -3.93127  -1.05105  5.28783
O    0.78744  -1.71730  3.20051
Hg    2.90404  0.95655  0.44982
