22
Energy: -568335.2283684  eV PBE+vdW (tier 2 basis)
N    -0.33324  0.97019  0.46461
C    0.07720  0.20017  1.64900
C    1.62550  -0.02133  1.69804
O    2.35353  0.04551  0.70487
H    -1.07874  0.52632  -0.08516
H    -0.62800  1.92895  0.69146
H    1.58072  -0.26169  3.61744
H    -0.17355  0.80719  2.53590
C    -0.66344  -1.20263  1.69195
C    -0.65627  -1.95162  2.99122
N    0.06819  -3.11772  3.22870
C    -1.44309  -1.77464  4.11918
C    -0.26164  -3.63291  4.42077
N    -1.17075  -2.81506  4.96879
H    -0.27970  -1.84241  0.88346
H    -1.71720  -0.99396  1.45423
H    0.71131  -3.58229  2.58595
H    -2.18538  -1.01907  4.35859
H    0.12928  -4.54999  4.85731
H    -1.61199  -2.97075  5.87994
O    2.16078  -0.37274  2.83636
Hg    1.45574  1.19271  -1.11073
