22
Energy: -568336.0530716  eV PBE+vdW (tier 2 basis)
N    0.64701  -0.56432  0.10012
C    0.16466  0.16282  1.34883
C    1.41613  0.72216  2.10711
O    2.52375  0.65139  1.52043
H    -0.14554  -0.85199  -0.49622
H    1.19778  -1.40972  0.32570
H    1.26336  0.04036  -0.47087
H    -0.37465  1.05344  0.98892
C    -0.73008  -0.71421  2.26724
C    -2.09923  -1.05449  1.75813
N    -3.19966  -0.19910  1.81791
C    -2.59961  -2.25875  1.29783
C    -4.30660  -0.84179  1.42524
N    -3.94765  -2.09055  1.10182
H    -0.81526  -0.16240  3.21721
H    -0.20663  -1.64906  2.51747
H    -3.21451  0.75767  2.17194
H    -2.11416  -3.21671  1.13996
H    -5.31204  -0.42849  1.38604
H    -4.59791  -2.81278  0.78091
O    1.20790  1.24195  3.23929
Hg    3.44905  1.80996  3.44004
