22
Energy: -568335.7777178  eV PBE+vdW (tier 2 basis)
N    0.86071  1.39682  1.49035
C    0.14323  0.24512  2.04684
C    0.92330  -1.07400  1.78300
O    2.11476  -1.12852  1.47941
H    0.79356  2.23666  2.07723
H    0.57341  1.64122  0.53334
H    0.72787  -2.96696  1.87825
H    0.15412  0.35117  3.14459
C    -1.37836  0.20042  1.53063
C    -2.38450  -0.35795  2.48016
N    -2.85137  -1.66547  2.48485
C    -3.14477  0.30338  3.44042
C    -3.84472  -1.80190  3.37276
N    -4.01966  -0.60824  3.96149
H    -1.41935  -0.31948  0.56394
H    -1.66823  1.24191  1.34308
H    -2.54910  -2.41876  1.86760
H    -3.13845  1.34120  3.75941
H    -4.41590  -2.70704  3.56920
H    -4.72433  -0.41627  4.67948
O    0.19053  -2.14375  1.97681
Hg    3.20925  0.95744  1.22718
