22
Energy: -568335.1598908  eV PBE+vdW (tier 2 basis)
N    0.10758  0.74919  1.00414
C    0.13993  0.03827  2.28700
C    1.59403  -0.47904  2.64180
O    2.56201  -0.36023  1.88290
H    -0.29213  1.69218  1.06514
H    -0.36180  0.23356  0.25273
H    1.06140  -1.08194  4.42274
H    -0.07274  0.78054  3.07474
C    -0.88418  -1.16674  2.35427
C    -2.31437  -0.83350  2.66500
N    -3.38274  -1.20874  1.85685
C    -2.89097  -0.26050  3.78747
C    -4.54516  -0.89920  2.44850
N    -4.25020  -0.31323  3.61561
H    -0.53145  -1.86846  3.12603
H    -0.81894  -1.74485  1.41943
H    -3.33367  -1.72234  0.97586
H    -2.45104  0.15558  4.68795
H    -5.54091  -1.09852  2.05775
H    -4.94843  0.02428  4.28427
O    1.80747  -1.04991  3.78982
Hg    2.33933  1.02359  0.07301
