22
Energy: -568335.5817785  eV PBE+vdW (tier 2 basis)
N    -0.60055  1.85408  1.40051
C    -0.15279  0.54574  1.44375
C    1.44538  0.49729  0.93202
O    2.24626  0.19798  1.80721
H    -0.58011  2.44161  2.23481
H    -0.81687  2.33905  0.52974
H    1.09242  1.03881  -0.91726
H    -0.07586  0.20008  2.48036
C    -0.94888  -0.49921  0.54414
C    -2.21152  -0.97587  1.17725
N    -2.36460  -2.23294  1.75601
C    -3.46413  -0.38065  1.26525
C    -3.62893  -2.40996  2.15409
N    -4.29944  -1.28389  1.86068
H    -0.29500  -1.35700  0.33542
H    -1.18140  -0.02759  -0.42241
H    -1.65439  -2.96251  1.82753
H    -3.81345  0.59291  0.93724
H    -4.04118  -3.30350  2.61799
H    -5.29583  -1.14089  2.04797
O    1.79851  0.81368  -0.27529
Hg    4.66336  0.26778  1.55100
