30
Energy: -616654.3867245  eV PBE+vdW (tier 2 basis)
C    -0.601154  0.160054  -0.151202
C    -0.399735  0.187759  1.322839
O    0.733248  0.549143  1.792393
H    -0.409310  -0.856129  -0.534948
H    0.140148  0.819975  -0.615268
H    -1.611189  0.456145  -0.449716
N    -1.372405  -0.151830  2.202117
C    -2.224024  -1.351581  2.131099
C    -1.276690  -2.582362  2.208987
O    -0.047683  -2.450160  2.536662
H    -1.146825  0.126255  3.157501
H    -2.787844  -1.345359  3.078056
C    -3.251234  -1.388678  0.983613
C    -4.167884  -0.160646  0.957833
S    -5.173843  -0.237208  -0.557203
C    -6.343441  1.107949  -0.274705
H    -3.886081  -2.277326  1.118258
H    -2.748113  -1.519656  0.015733
H    -3.589916  0.776114  0.964421
H    -4.831102  -0.147629  1.835551
H    -6.985146  1.136077  -1.162619
H    -5.822734  2.068187  -0.175199
H    -6.960558  0.909526  0.610148
N    -1.767380  -3.782716  1.970697
C    -1.001726  -5.031330  2.075455
H    -2.746386  -3.853678  1.705564
H    -1.677864  -5.864968  1.870896
H    -0.588073  -5.137445  3.084848
H    -0.185209  -5.039390  1.343925
Pb    1.742905  -1.085477  3.042874
