30
Energy: -616654.7420092  eV PBE+vdW (tier 2 basis)
C    -1.161441  0.050866  -0.322270
C    -0.363186  0.002581  0.929526
O    0.887351  -0.288522  0.876721
H    -2.241057  0.065887  -0.149097
H    -0.900887  -0.839578  -0.913572
H    -0.867190  0.916900  -0.934357
N    -0.913365  0.245837  2.133062
C    -1.809766  1.371349  2.407381
C    -0.901558  2.639178  2.450475
O    0.379481  2.543981  2.274901
H    -0.326532  -0.026931  2.923935
H    -2.478170  1.487055  1.541462
C    -2.664226  1.095258  3.673931
C    -4.105171  1.619677  3.629921
S    -4.218390  3.414717  3.968563
C    -5.823228  3.825934  3.233112
H    -2.146698  1.455559  4.575996
H    -2.725963  0.001322  3.766816
H    -4.695058  1.095278  4.392279
H    -4.565065  1.410289  2.653091
H    -5.973264  4.896680  3.411078
H    -6.614941  3.267620  3.744907
H    -5.838047  3.625437  2.156348
N    -1.461767  3.799575  2.646778
C    -0.749668  5.076108  2.710093
H    -2.501300  3.802560  2.888305
H    0.081746  5.021411  3.422415
H    -1.459322  5.840941  3.037269
H    -0.361180  5.347286  1.720394
Pb    2.205717  1.353909  1.728565
