30
Energy: -616655.1663735  eV PBE+vdW (tier 2 basis)
C    -0.997686  -0.700194  0.473077
C    -0.769470  0.032490  1.752158
O    0.132409  -0.392981  2.546522
H    -0.062588  -0.715586  -0.103765
H    -1.795870  -0.269623  -0.140272
H    -1.242427  -1.746467  0.704680
N    -1.527820  1.103872  2.018996
C    -1.577607  1.939431  3.235739
C    -0.311343  2.785613  3.378722
O    0.753005  2.304204  3.914480
H    -2.222075  1.330464  1.310580
H    -2.425941  2.616403  3.060698
C    -1.970469  1.190983  4.523566
C    -3.399924  0.610273  4.456512
S    -4.671203  1.849443  4.084524
C    -4.975743  2.593520  5.710627
H    -1.887024  1.900813  5.359655
H    -1.285942  0.348771  4.760346
H    -3.637543  0.106849  5.402236
H    -3.476469  -0.146441  3.663762
H    -5.775338  3.326613  5.552601
H    -4.096729  3.113707  6.107336
H    -5.327625  1.831031  6.414823
N    -0.286702  4.043579  2.979991
C    -1.320483  4.872408  2.352736
H    0.617147  4.501261  3.123439
H    -2.316506  4.443103  2.486812
H    -1.107484  4.986516  1.282150
H    -1.302479  5.861340  2.823855
Pb    1.344615  0.184721  4.343567
