30
Energy: -616654.5410763  eV PBE+vdW (tier 2 basis)
C    -0.153161  1.501589  1.388143
C    0.012471  0.213157  2.108101
O    1.154816  -0.379756  2.041850
H    -1.001746  2.091126  1.736724
H    -0.230203  1.333159  0.302994
H    0.776994  2.070400  1.536470
N    -0.933294  -0.349775  2.890994
C    -2.325150  -0.699123  2.544870
C    -2.245537  -2.066299  1.820419
O    -1.156146  -2.468411  1.248474
H    -0.523934  -1.040785  3.522872
H    -2.845071  -0.881425  3.497224
C    -3.116952  0.398304  1.802672
C    -4.598280  0.085358  1.513992
S    -5.563879  -0.778003  2.794503
C    -5.515167  0.372601  4.196832
H    -2.646536  0.641539  0.840266
H    -3.053534  1.295554  2.433915
H    -4.701213  -0.557633  0.629051
H    -5.103911  1.028149  1.265614
H    -6.133124  -0.084649  4.977903
H    -5.967284  1.326834  3.903031
H    -4.505214  0.532075  4.592212
N    -3.326336  -2.804182  1.835629
C    -3.503920  -4.110407  1.205491
H    -4.134036  -2.388071  2.363413
H    -3.454984  -4.899271  1.967964
H    -2.730880  -4.275278  0.451418
H    -4.493436  -4.140837  0.736146
Pb    1.092534  -2.478945  1.203049
