30
Energy: -616654.8049315  eV PBE+vdW (tier 2 basis)
C    0.263979  -0.632586  0.301477
C    -0.045998  0.437590  1.289292
O    0.607481  1.534781  1.255602
H    1.329730  -0.890539  0.367958
H    0.096354  -0.238983  -0.711407
H    -0.339832  -1.535268  0.440844
N    -1.013245  0.242954  2.196633
C    -1.447505  1.298614  3.114772
C    -0.322643  1.632567  4.119840
O    0.170010  2.828816  4.054085
H    -1.545331  -0.623883  2.152322
H    -1.497559  2.216668  2.508788
C    -2.905521  1.136432  3.603735
C    -3.337392  0.001250  4.537495
S    -3.139704  0.490673  6.281000
C    -3.872538  -0.933172  7.126361
H    -3.498721  1.075547  2.678130
H    -3.187427  2.097618  4.060497
H    -2.820608  -0.951706  4.339243
H    -4.406098  -0.182592  4.360124
H    -3.802573  -0.716118  8.198221
H    -3.327538  -1.859670  6.909187
H    -4.928709  -1.035695  6.851225
N    0.233256  0.782314  4.959030
C    -0.105111  -0.598083  5.286323
H    0.973281  1.202990  5.524745
H    0.790488  -1.080713  5.688182
H    -0.430924  -1.142964  4.395997
H    -0.911921  -0.598306  6.040508
Pb    1.063155  3.579252  2.141415
