30
Energy: -616655.0810139  eV PBE+vdW (tier 2 basis)
C    0.524173  -0.509821  0.124279
C    0.200677  0.061080  1.464954
O    0.862292  1.105118  1.863237
H    1.592717  -0.755049  0.063133
H    0.336340  0.266369  -0.632489
H    -0.074408  -1.394764  -0.114389
N    -0.752948  -0.513882  2.172702
C    -1.488632  -0.109367  3.378010
C    -0.671752  0.521413  4.496116
O    0.591249  0.306511  4.634377
H    -1.228039  -1.354153  1.715650
H    -2.249185  0.625060  3.061373
C    -2.219843  -1.364437  3.939464
C    -3.284118  -1.964224  3.004676
S    -2.687121  -2.775516  1.475306
C    -2.013265  -4.333422  2.119850
H    -2.722317  -1.079887  4.874008
H    -1.464531  -2.115277  4.213839
H    -3.988479  -1.192696  2.661569
H    -3.874786  -2.700528  3.565789
H    -1.183995  -4.178488  2.818975
H    -2.814215  -4.912564  2.592963
H    -1.647340  -4.885831  1.246827
N    -1.288309  1.252614  5.410979
C    -2.702828  1.620466  5.531424
H    -0.688121  1.540118  6.185819
H    -3.191017  1.640964  4.553118
H    -2.759806  2.621694  5.970845
H    -3.228102  0.916517  6.190108
Pb    2.288526  1.257460  3.522753
