30
Energy: -616654.3766792  eV PBE+vdW (tier 2 basis)
C    -1.691774  1.479637  0.135414
C    -0.473660  1.220505  0.949852
O    0.626417  1.783829  0.623388
H    -1.550925  2.417595  -0.412989
H    -2.600843  1.528077  0.742182
H    -1.815143  0.682694  -0.616871
N    -0.479639  0.406894  2.032990
C    -1.067210  -0.940679  2.093815
C    -0.338758  -1.798951  1.025464
O    0.733572  -1.381309  0.463790
H    0.357350  0.512393  2.607465
H    -0.744496  -1.338372  3.070161
C    -2.610826  -1.021016  2.073756
C    -3.255984  -0.167746  3.177817
S    -5.038483  -0.452081  3.341895
C    -5.717411  0.546150  1.996943
H    -2.896583  -2.067202  2.258983
H    -3.008504  -0.762885  1.083847
H    -3.069017  0.906026  3.029851
H    -2.838129  -0.435795  4.159333
H    -5.418864  0.172958  1.009469
H    -5.440696  1.601370  2.118328
H    -6.806663  0.456873  2.083418
N    -0.813497  -2.992454  0.726665
C    -0.178567  -3.932657  -0.205597
H    -1.671505  -3.291135  1.183315
H    -0.748347  -4.864991  -0.191405
H    0.853571  -4.132571  0.103863
H    -0.181571  -3.522098  -1.222274
Pb    2.294868  0.279865  0.173715
