30
Energy: -616655.6495982  eV PBE+vdW (tier 2 basis)
C    -0.040514  -2.582482  0.337589
C    -0.379679  -1.808038  1.564831
O    -0.420629  -0.541424  1.521706
H    -0.727759  -2.292846  -0.468872
H    -0.087023  -3.666556  0.485225
H    0.969661  -2.302890  0.007149
N    -0.648145  -2.485712  2.708033
C    -1.032348  -1.755877  3.902581
C    0.175973  -1.294687  4.731780
O    0.567026  -0.091070  4.564762
H    -0.596581  -3.501450  2.695439
H    -1.366528  -0.814222  3.465273
C    -2.300546  -2.187517  4.664920
C    -3.458948  -1.255079  4.264343
S    -3.042129  0.535607  4.514146
C    -4.432422  1.343676  3.669086
H    -2.132504  -2.135206  5.749031
H    -2.590920  -3.222982  4.438153
H    -4.342623  -1.439540  4.888447
H    -3.740606  -1.391352  3.210895
H    -4.270486  2.423939  3.758522
H    -5.355063  1.080035  4.198483
H    -4.492505  1.049980  2.616080
N    0.777120  -2.117180  5.570001
C    1.945579  -1.789073  6.394703
H    0.396744  -3.056620  5.664570
H    2.767960  -2.470801  6.147825
H    1.687227  -1.903959  7.454037
H    2.246244  -0.758303  6.196378
Pb    -0.496576  1.289627  3.025881
