30
Energy: -616655.5950243  eV PBE+vdW (tier 2 basis)
C    0.374366  1.058769  1.483438
C    -0.271257  0.288770  2.584172
O    0.241294  0.291747  3.743234
H    1.385974  0.662775  1.316903
H    0.492970  2.103829  1.800021
H    -0.188276  1.023303  0.544615
N    -1.409952  -0.398273  2.315545
C    -2.080649  -1.114579  3.384501
C    -1.532910  -2.533819  3.592680
O    -0.718211  -2.694167  4.565935
H    -1.777964  -0.378941  1.367831
H    -1.663999  -0.606327  4.254322
C    -3.586745  -0.881994  3.618714
C    -3.762201  0.153540  4.743825
S    -2.893501  -0.346243  6.304158
C    -3.007766  1.182311  7.279190
H    -4.078321  -1.825539  3.891977
H    -4.096246  -0.509581  2.718899
H    -4.819913  0.255293  5.018552
H    -3.382176  1.141091  4.447082
H    -4.067164  1.388772  7.469202
H    -2.534356  2.026396  6.767259
H    -2.510070  0.983985  8.235338
N    -1.856879  -3.557154  2.826276
C    -2.751849  -3.585316  1.670412
H    -1.406969  -4.439946  3.078704
H    -2.189196  -3.875171  0.774504
H    -3.207339  -2.605166  1.507205
H    -3.549508  -4.318371  1.840695
Pb    0.042815  -0.881994  5.801815
