30
Energy: -616654.5202677  eV PBE+vdW (tier 2 basis)
C    -0.572646  -0.188008  -0.395781
C    -0.306217  -0.225249  1.064405
O    0.879513  -0.440200  1.495261
H    -0.012823  0.631623  -0.869374
H    -1.635556  -0.118593  -0.642067
H    -0.164219  -1.115969  -0.826353
N    -1.297260  -0.037393  1.964650
C    -2.257530  1.066173  1.883203
C    -1.424510  2.360335  1.913979
O    -0.281455  2.363487  2.517985
H    -1.052238  -0.312285  2.918700
H    -2.856529  0.991508  0.955907
C    -3.252147  0.956648  3.062990
C    -4.590471  1.674128  2.842909
S    -5.458096  1.235122  1.306897
C    -6.062161  -0.435554  1.661157
H    -2.787706  1.320568  3.993600
H    -3.441527  -0.118480  3.200258
H    -4.471104  2.765229  2.814499
H    -5.249175  1.463361  3.696508
H    -6.648330  -0.730337  0.783252
H    -6.720098  -0.419634  2.538106
H    -5.248793  -1.156803  1.801238
N    -1.834474  3.484191  1.359655
C    -3.015619  3.763976  0.537332
H    -1.200970  4.273304  1.506519
H    -2.683786  4.208125  -0.408738
H    -3.664297  4.482175  1.053546
H    -3.578106  2.849922  0.327670
Pb    1.623039  1.188187  2.920657
