30
Energy: -616655.4235306  eV PBE+vdW (tier 2 basis)
C    -0.150519  0.260727  0.526922
C    -0.071531  -0.136434  1.959599
O    0.942137  -0.813665  2.364315
H    -1.064218  0.814386  0.288113
H    -0.085312  -0.634809  -0.105544
H    0.722908  0.884000  0.285959
N    -1.036960  0.236499  2.797655
C    -1.021368  -0.002420  4.248533
C    -1.282525  -1.497859  4.537424
O    -0.276783  -2.246064  4.854865
H    -1.840108  0.749922  2.419993
H    0.015129  0.166600  4.577786
C    -1.863049  1.048812  5.013063
C    -3.394378  0.957600  5.042234
S    -4.099587  0.543175  3.406428
C    -5.867384  0.856578  3.661177
H    -1.556981  2.022505  4.603151
H    -1.511401  1.038007  6.054570
H    -3.785294  1.934138  5.355650
H    -3.737039  0.217095  5.778339
H    -6.364785  0.574528  2.726736
H    -6.029522  1.922211  3.854471
H    -6.253214  0.243980  4.482767
N    -2.491751  -1.989308  4.442157
C    -2.850748  -3.391636  4.661314
H    -3.238562  -1.340033  4.092212
H    -2.156583  -3.850106  5.370380
H    -2.826981  -3.942837  3.711480
H    -3.868205  -3.428121  5.062865
Pb    1.744612  -2.213469  3.912382
