30
Energy: -616654.9306915  eV PBE+vdW (tier 2 basis)
C    0.010211  -0.079622  -0.056191
C    -0.140620  0.133470  1.411068
O    0.816357  0.658190  2.069436
H    0.897433  -0.699180  -0.244669
H    0.196029  0.892837  -0.534644
H    -0.865908  -0.545837  -0.518710
N    -1.289920  -0.215341  2.006393
C    -1.635020  0.065134  3.406299
C    -0.871360  -0.886326  4.351898
O    0.194629  -0.442866  4.916496
H    -2.017197  -0.612218  1.414677
H    -1.217024  1.056177  3.643852
C    -3.161012  0.157149  3.598424
C    -3.737398  1.471145  3.038876
S    -5.551498  1.510782  3.005373
C    -5.962156  1.843281  4.734682
H    -3.377526  0.083793  4.673471
H    -3.666834  -0.692269  3.119040
H    -3.445676  1.614468  1.988035
H    -3.362491  2.338341  3.603273
H    -5.517713  2.790043  5.065602
H    -5.667071  1.021962  5.398890
H    -7.054125  1.936423  4.763116
N    -1.247302  -2.123117  4.619581
C    -2.393685  -2.899446  4.134457
H    -0.632349  -2.600688  5.281431
H    -2.147866  -3.959364  4.248813
H    -2.581591  -2.706317  3.074455
H    -3.293558  -2.682506  4.722666
Pb    1.814659  0.899608  4.084217
