30
Energy: -616654.7941493  eV PBE+vdW (tier 2 basis)
C    0.398568  -0.437337  0.284554
C    0.281941  -0.391628  1.769799
O    1.342083  -0.303133  2.473388
H    0.912494  0.473438  -0.055069
H    -0.567967  -0.516137  -0.223773
H    1.034486  -1.285287  -0.004044
N    -0.936144  -0.424698  2.325258
C    -1.242962  -0.243739  3.748794
C    -0.926053  -1.532508  4.545945
O    0.248312  -1.631003  5.065722
H    -1.729071  -0.472872  1.688548
H    -0.495955  0.466138  4.139200
C    -2.633031  0.408447  3.977002
C    -3.726234  0.183223  2.906619
S    -5.412437  0.122053  3.580452
C    -5.667790  1.826765  4.132902
H    -2.463138  1.487932  4.071536
H    -3.001497  0.082767  4.959056
H    -3.639355  -0.788977  2.398767
H    -3.678254  0.959794  2.129921
H    -6.701835  1.861367  4.495400
H    -5.563206  2.525693  3.294360
H    -4.999288  2.101111  4.957282
N    -1.762394  -2.532230  4.753250
C    -3.141555  -2.755212  4.308031
H    -1.352601  -3.278109  5.318869
H    -3.199560  -2.772277  3.213943
H    -3.829200  -1.998248  4.709614
H    -3.450250  -3.735444  4.680356
Pb    2.229691  -0.733477  4.499074
