30
Energy: -616655.0465100  eV PBE+vdW (tier 2 basis)
C    -0.114026  0.429969  -0.106820
C    -0.050115  0.166546  1.358263
O    1.093532  0.264885  1.947727
H    -1.140784  0.438047  -0.486165
H    0.468229  -0.333224  -0.642522
H    0.365530  1.396997  -0.312107
N    -1.172150  -0.136058  1.999450
C    -1.389120  -0.178890  3.456339
C    -0.993340  -1.576656  3.989533
O    0.267202  -1.858229  3.974229
H    -2.064701  -0.009322  1.440762
H    -0.633492  0.473753  3.927418
C    -2.763646  0.441313  3.788465
C    -3.968472  0.029699  2.926444
S    -3.934796  0.906344  1.314156
C    -5.263256  0.054068  0.423334
H    -2.636598  1.532094  3.711420
H    -2.974460  0.263305  4.851813
H    -4.895545  0.298375  3.449665
H    -3.999743  -1.050104  2.728680
H    -5.317836  0.529202  -0.562722
H    -6.215798  0.208257  0.942618
H    -5.052273  -1.014103  0.302235
N    -1.778680  -2.513712  4.487202
C    -3.222173  -2.630806  4.725241
H    -1.241682  -3.340363  4.760043
H    -3.734381  -2.988735  3.823937
H    -3.655546  -1.687521  5.058730
H    -3.357564  -3.373009  5.517900
Pb    2.206280  -0.851884  3.480509
