30
Energy: -616654.4255466  eV PBE+vdW (tier 2 basis)
C    -0.658068  -0.639928  -0.545193
C    -0.231224  -0.775818  0.871342
O    0.817095  -1.450953  1.159811
H    0.065100  -0.031930  -1.109100
H    -1.665942  -0.231465  -0.660750
H    -0.622711  -1.643329  -0.995858
N    -0.934808  -0.218582  1.880527
C    -1.410729  1.162922  1.869358
C    -0.175021  2.057152  2.163062
O    0.980768  1.553862  2.384102
H    -0.669182  -0.562974  2.804386
H    -1.743634  1.398574  0.847718
C    -2.610887  1.374425  2.821779
C    -2.316561  1.140572  4.309406
S    -3.799235  1.207001  5.361217
C    -4.165795  2.975039  5.413743
H    -3.410084  0.699112  2.486385
H    -2.997965  2.392620  2.670330
H    -1.567453  1.848968  4.697356
H    -1.937269  0.123363  4.491682
H    -4.467811  3.366620  4.434565
H    -3.317938  3.541206  5.819540
H    -5.015675  3.074240  6.099462
N    -0.335758  3.367272  2.165522
C    0.739010  4.340292  2.397673
H    -1.267473  3.732392  1.983268
H    1.502463  4.258926  1.614870
H    1.201500  4.167514  3.376252
H    0.304923  5.342832  2.373397
Pb    2.386667  -0.277811  2.339207
