30
Energy: -616655.0147643  eV PBE+vdW (tier 2 basis)
C    0.584689  -0.984327  0.608281
C    -0.293044  0.224706  0.705062
O    0.012653  1.314150  0.188346
H    0.850002  -1.150348  -0.442968
H    0.138559  -1.893631  1.024810
H    1.522378  -0.772800  1.141768
N    -1.472258  0.088514  1.393623
C    -2.341680  1.190979  1.815287
C    -3.042078  1.901063  0.644815
O    -4.323992  2.128641  0.721831
H    -1.706440  -0.831394  1.752724
H    -3.150676  0.710738  2.381978
C    -1.607817  2.194053  2.755469
C    -2.420151  2.826446  3.882945
S    -3.653097  4.159475  3.557264
C    -2.783711  5.322766  2.462486
H    -1.063619  2.950645  2.176768
H    -0.827978  1.612350  3.270109
H    -1.735329  3.314092  4.592104
H    -2.990215  2.084519  4.461211
H    -3.447109  6.184772  2.324614
H    -2.518882  4.878730  1.497880
H    -1.882932  5.658397  2.991154
N    -2.343418  2.250865  -0.396974
C    -2.854622  2.880943  -1.609322
H    -1.302504  1.998899  -0.305688
H    -3.940899  2.776178  -1.672743
H    -2.386898  2.396605  -2.473764
H    -2.577688  3.944017  -1.625592
Pb    -5.747128  3.189870  1.974205
