30
Energy: -616654.9322789  eV PBE+vdW (tier 2 basis)
C    -0.576252  1.390254  -0.555284
C    -0.650929  1.240408  0.922627
O    0.357181  1.657325  1.635578
H    0.302906  0.845041  -0.927367
H    -0.428824  2.448850  -0.809982
H    -1.473459  1.015128  -1.057592
N    -1.701840  0.691983  1.483076
C    -1.927878  0.437846  2.899494
C    -3.147312  -0.541158  2.883120
O    -3.860161  -0.533592  1.880085
H    -2.520876  0.356928  0.933836
H    -1.035996  -0.051545  3.324214
C    -2.264222  1.758514  3.642467
C    -1.918525  1.788303  5.124959
S    -0.142801  1.393427  5.444192
C    0.234220  2.337295  6.953797
H    -3.340652  1.963100  3.540308
H    -1.760598  2.596987  3.137053
H    -2.487284  1.050489  5.706899
H    -2.114020  2.781212  5.548063
H    1.284018  2.142963  7.202396
H    -0.397433  1.935856  7.755232
H    0.052908  3.408025  6.817594
N    -3.358721  -1.272560  3.988513
C    -4.487855  -2.200568  4.113611
H    -2.625354  -1.327463  4.687454
H    -5.303090  -1.848838  3.475536
H    -4.821144  -2.224146  5.155927
H    -4.199451  -3.211564  3.798763
Pb    1.469360  2.392194  3.346014
