30
Energy: -616655.0912519  eV PBE+vdW (tier 2 basis)
C    0.385688  -0.140073  0.165016
C    0.181252  -0.000645  1.634474
O    1.147275  0.413589  2.360942
H    0.671142  0.839379  -0.244949
H    -0.501044  -0.506098  -0.362752
H    1.228868  -0.818990  -0.021748
N    -1.014388  -0.291135  2.158762
C    -1.398848  -0.072287  3.561656
C    -0.690096  -1.103377  4.475044
O    0.366945  -0.712894  5.127848
H    -1.744878  -0.570061  1.507142
H    -0.965287  0.894868  3.862160
C    -2.926044  0.064147  3.696722
C    -3.301175  0.699548  5.036077
S    -2.555167  -0.162389  6.456360
C    -3.802979  -1.424194  6.836687
H    -3.426369  -0.904753  3.571341
H    -3.280025  0.712789  2.879125
H    -4.390159  0.738209  5.163349
H    -2.937973  1.735539  5.090444
H    -3.358410  -2.087224  7.587427
H    -4.091449  -2.009171  5.957368
H    -4.686004  -0.940516  7.270470
N    -0.891742  -2.413498  4.388477
C    -1.966883  -3.155568  3.731464
H    -0.274131  -2.959007  4.989153
H    -2.179156  -2.755589  2.735704
H    -2.882000  -3.153090  4.335802
H    -1.633876  -4.190965  3.611453
Pb    2.051232  0.515919  4.421569
