30
Energy: -616656.0851492  eV PBE+vdW (tier 2 basis)
C    -2.390596  0.379869  0.423143
C    -1.811738  -0.012229  1.744654
O    -0.616109  -0.419024  1.802059
H    -3.439927  0.687875  0.476631
H    -2.295415  -0.464134  -0.273207
H    -1.793710  1.202365  0.004979
N    -2.597776  0.094638  2.832037
C    -2.288398  -0.251052  4.229191
C    -0.989773  0.411873  4.724072
O    0.117284  -0.213837  4.773088
H    -3.544759  0.420860  2.658256
H    -3.086246  0.242219  4.800165
C    -2.434295  -1.755888  4.590747
C    -2.023998  -2.861865  3.616254
S    -0.293995  -3.454803  3.501467
C    0.145189  -3.854807  5.217678
H    -3.512311  -1.913942  4.744857
H    -1.984343  -1.910501  5.581296
H    -2.296323  -2.635723  2.576814
H    -2.579975  -3.773024  3.879465
H    1.143345  -4.307344  5.183916
H    -0.566073  -4.604607  5.584008
H    0.150386  -2.971121  5.863711
N    -1.051767  1.655824  5.177921
C    -2.217514  2.540626  5.290338
H    -0.162272  2.019414  5.522776
H    -2.944929  2.149817  6.013911
H    -2.694438  2.693657  4.315359
H    -1.868070  3.511063  5.653220
Pb    1.201386  -1.164701  2.987351
