30
Energy: -616655.5004417  eV PBE+vdW (tier 2 basis)
C    -2.117818  -1.406260  0.441715
C    -0.900416  -1.113253  1.239621
O    0.236513  -1.556025  0.888893
H    -1.972937  -1.116294  -0.607112
H    -3.028433  -0.959127  0.851028
H    -2.245129  -2.501713  0.439674
N    -0.973447  -0.375181  2.381873
C    -1.638741  0.924474  2.493626
C    -1.363293  1.749376  1.224622
O    -0.280776  1.588350  0.566868
H    -0.158364  -0.498052  2.984202
H    -2.719549  0.792086  2.636281
C    -1.075879  1.668938  3.730880
C    0.341709  2.253043  3.625780
S    1.686551  0.998398  3.469397
C    3.178016  1.998203  3.753103
H    -1.155942  0.990856  4.593289
H    -1.743425  2.513485  3.953341
H    0.568369  2.775040  4.565457
H    0.437529  2.979181  2.808263
H    4.035391  1.325747  3.633436
H    3.149626  2.359367  4.787755
H    3.241766  2.835162  3.050010
N    -2.235519  2.661392  0.826397
C    -3.527677  3.022547  1.422852
H    -1.944114  3.193587  0.005202
H    -3.394939  3.699173  2.276432
H    -4.081980  2.132035  1.738013
H    -4.118906  3.537119  0.660089
Pb    1.669449  0.295291  0.666615
