30
Energy: -616656.0822752  eV PBE+vdW (tier 2 basis)
C    -1.307292  0.127412  -0.874609
C    -0.823616  -0.130078  0.514511
O    0.249618  -0.783482  0.695715
H    -1.443729  -0.838447  -1.381866
H    -0.533011  0.670184  -1.433313
H    -2.246753  0.688179  -0.916519
N    -1.569701  0.319789  1.537649
C    -1.433849  0.034088  2.976375
C    -0.354902  0.909011  3.626629
O    0.844250  0.940945  3.204838
H    -2.407925  0.830469  1.273424
H    -2.390218  0.369059  3.390088
C    -1.325439  -1.498599  3.293537
C    -0.298943  -1.965388  4.330448
S    1.384800  -2.433005  3.767959
C    1.079886  -3.874088  2.703459
H    -1.186184  -2.044066  2.353967
H    -2.312025  -1.807351  3.663051
H    -0.665391  -2.874842  4.826059
H    -0.121453  -1.235853  5.132553
H    0.453236  -3.631623  1.839009
H    0.617377  -4.657193  3.315400
H    2.063520  -4.224920  2.368943
N    -0.682125  1.661825  4.668515
C    -1.990261  1.844004  5.313807
H    0.091713  2.217454  5.036615
H    -1.835448  2.446179  6.213439
H    -2.422640  0.885110  5.621680
H    -2.685480  2.383670  4.658337
Pb    2.147986  -0.448439  1.929296
