30
Energy: -616655.3018283  eV PBE+vdW (tier 2 basis)
C    0.007867  0.233293  0.104863
C    0.049407  0.186486  1.587397
O    1.145507  0.052549  2.212564
H    0.623436  1.063806  -0.267627
H    -1.006583  0.287760  -0.300444
H    0.486423  -0.686575  -0.268013
N    -1.090987  0.266620  2.329562
C    -2.110380  1.302364  2.199724
C    -1.431700  2.676478  2.034807
O    -0.269647  2.906608  2.505684
H    -0.928794  -0.026816  3.291205
H    -2.732329  1.112573  1.314522
C    -3.035817  1.298563  3.457330
C    -2.488749  0.719964  4.770593
S    -0.986186  1.397027  5.594609
C    -1.411248  3.138767  5.886614
H    -3.925076  0.695278  3.225254
H    -3.402524  2.319198  3.627027
H    -2.284679  -0.359598  4.704111
H    -3.273593  0.811693  5.535310
H    -0.593216  3.565289  6.479619
H    -2.325609  3.168445  6.491217
H    -1.538361  3.704382  4.958280
N    -2.074400  3.637450  1.389100
C    -3.389582  3.572669  0.735239
H    -1.568406  4.521586  1.328072
H    -4.186810  3.349558  1.453725
H    -3.394046  2.829281  -0.071913
H    -3.591806  4.552737  0.295215
Pb    1.300911  1.777539  3.812068
