30
Energy: -616655.5793944  eV PBE+vdW (tier 2 basis)
C    -0.250086  0.181043  -0.421601
C    -0.139459  0.250496  1.057302
O    0.992668  0.246936  1.631610
H    0.360217  0.961414  -0.894247
H    -1.281016  0.211456  -0.786121
H    0.193073  -0.780529  -0.731076
N    -1.253408  0.300188  1.840303
C    -2.358767  1.243387  1.657199
C    -1.793149  2.617920  1.244244
O    -0.657611  3.012434  1.665878
H    -1.068795  0.032272  2.807998
H    -3.054678  0.878306  0.887045
C    -3.134507  1.365905  2.992807
C    -2.475804  2.157615  4.132930
S    -0.945934  1.390045  4.822947
C    -0.679698  2.358594  6.338152
H    -3.394537  0.349461  3.323786
H    -4.091137  1.865700  2.783530
H    -3.172419  2.180106  4.982101
H    -2.256580  3.195619  3.851901
H    -0.606022  3.429912  6.124224
H    0.248202  1.988808  6.789681
H    -1.514132  2.153771  7.018988
N    -2.549027  3.378365  0.471251
C    -2.228326  4.736512  0.023188
H    -3.432798  2.986269  0.150772
H    -2.230792  4.767093  -1.072699
H    -1.242054  5.016844  0.398239
H    -2.983128  5.436241  0.401760
Pb    1.110705  2.179816  2.965907
