30
Energy: -616655.7845153  eV PBE+vdW (tier 2 basis)
C    1.776773  -1.540029  1.369029
C    0.895124  -0.898017  2.384313
O    1.305898  -0.746172  3.574736
H    2.017861  -2.560168  1.698964
H    2.727096  -0.990868  1.322815
H    1.328410  -1.577518  0.370646
N    -0.336652  -0.477094  2.005622
C    -1.176171  0.211004  2.967660
C    -2.015941  -0.759093  3.816072
O    -1.584337  -1.059550  4.978931
H    -0.626995  -0.619335  1.041479
H    -0.432652  0.577765  3.681613
C    -1.843941  1.527828  2.586362
C    -2.130257  2.323510  3.881516
S    -0.779560  2.487132  5.126469
C    0.495998  3.428661  4.237918
H    -2.791449  1.415682  2.039224
H    -1.163881  2.087954  1.929928
H    -2.953167  1.881347  4.460655
H    -2.428085  3.353196  3.643404
H    1.293705  3.632014  4.961820
H    0.057588  4.382324  3.921166
H    0.902080  2.886179  3.377888
N    -3.141376  -1.259283  3.341183
C    -4.009913  -2.216294  4.036570
H    -3.430397  -0.970158  2.409056
H    -5.020622  -1.799064  4.113758
H    -3.609073  -2.405733  5.034400
H    -4.049735  -3.153343  3.468238
Pb    0.440672  -0.219878  5.722565
