21
Energy:  -40373.7191640  eV PBE+vdW (tier 2 basis)
N    -0.149772  -0.447603  0.055199
C    -0.584812  0.001286  1.439805
C    0.496161  0.926917  1.986981
O    0.159584  1.833675  2.802691
H    -0.342999  0.269083  -0.660136
H    -0.618348  -1.316674  -0.240129
H    -1.539221  0.531411  1.342196
C    -0.706156  -1.233023  2.364907
C    -0.880888  -0.919298  3.861021
S    0.608782  -0.578616  4.884543
C    1.465119  -2.179409  4.938813
H    0.168553  -1.884878  2.216177
H    -1.590710  -1.806268  2.046365
H    -1.358163  -1.776693  4.352636
H    -1.534691  -0.053622  4.029718
H    2.316648  -2.053813  5.618127
H    1.823380  -2.497452  3.954534
H    0.786668  -2.924497  5.369574
O    1.712725  0.625747  1.739445
H    0.875261  -0.603173  0.074802
Ca    2.130846  1.539940  3.780632
