21
Energy:  -40373.6649684  eV PBE+vdW (tier 2 basis)
N    -0.252112  -1.286923  -0.090306
C    -0.014252  -0.286349  0.998992
C    1.381886  -0.529210  1.552100
O    1.934596  -1.645211  1.477229
H    0.136325  -0.911807  -0.964527
H    -1.262121  -1.334909  -0.264976
H    -0.059632  0.739980  0.606670
C    -1.067148  -0.390721  2.133944
C    -0.989999  -1.574183  3.101719
S    -1.304799  -3.214650  2.320895
C    -1.288493  -4.330496  3.758259
H    -2.062624  -0.335085  1.667657
H    -0.975805  0.520941  2.742289
H    -1.784231  -1.457923  3.851278
H    -0.032840  -1.616299  3.639739
H    -2.125015  -4.054804  4.410271
H    -0.338768  -4.278133  4.300118
H    -1.457242  -5.343036  3.374299
O    1.912406  0.506740  2.141399
H    2.798672  0.303559  2.515987
Ca    0.838050  -3.376034  0.601197
