21
Energy:  -40370.5207387  eV PBE+vdW (tier 2 basis)
N    -0.480010  -0.012587  0.201016
C    -0.053884  -0.218000  1.566978
C    1.475854  -0.447696  1.687435
O    2.136619  -0.910341  0.788806
H    -0.454062  0.970840  -0.063950
H    0.132953  -0.520154  -0.442833
H    -0.315294  0.656184  2.179670
C    -0.735731  -1.490150  2.164759
C    -2.241907  -1.271225  2.156321
S    -3.193803  -2.856952  2.333173
C    -2.869914  -3.761768  0.781886
H    -0.366562  -1.691728  3.177967
H    -0.449943  -2.336675  1.524125
H    -2.552601  -0.806618  1.209136
H    -2.573191  -0.658155  3.006418
H    -1.815061  -4.056871  0.788027
H    -3.094663  -3.131909  -0.084653
H    -3.484242  -4.669459  0.784970
O    1.926835  -0.095309  2.902919
H    2.892020  -0.263080  2.936345
Ca    -5.758966  -2.612449  2.825420
