21
Energy:  -40373.7271451  eV PBE+vdW (tier 2 basis)
 N    0.56057   -0.29945   -0.10944
 C    0.24076    0.06459    1.33349
 C    1.57252    0.16932    2.06950
 O    2.56489   -0.48076    1.58454
 H   -0.16763   -0.88033   -0.54715
 H    1.46806   -0.80758   -0.10352
 H   -0.28657    1.02543    1.32954
 C   -0.62966   -1.00438    2.02909
 C    0.00347   -2.37332    2.33239
 S    1.11062   -2.57903    3.79163
 C    0.03510   -2.14597    5.19160
 H   -1.52471   -1.17483    1.40847
 H   -1.01156   -0.54006    2.94803
 H    0.59596   -2.77538    1.49823
 H   -0.80251   -3.09842    2.50728
 H   -0.85425   -2.78611    5.16387
 H   -0.24220   -1.08671    5.19244
 H    0.60001   -2.38470    6.10092
 O    1.60272    0.72804    3.20094
 H    0.68213    0.53964   -0.69439
Ca    3.23247   -0.69014    3.73792
