21
Energy:  -40373.2500385  eV PBE+vdW (tier 2 basis)
 N    0.98621   -0.62929    0.45319
 C    0.22707   -1.04485    1.68274
 C    1.15866   -1.42311    2.82298
 O    2.43085   -1.33056    2.68615
 H    0.18141   -0.26102   -0.20577
 H    1.49003   -1.40731    0.01070
 H   -0.31441   -0.13952    2.00332
 C   -0.81108   -2.14706    1.35326
 C   -1.50480   -1.99809   -0.01636
 S   -1.83304   -0.24308   -0.44357
 C   -2.27781   -0.38199   -2.19759
 H   -1.54916   -2.12816    2.16425
 H   -0.33152   -3.13622    1.38705
 H   -2.45168   -2.55104    0.00174
 H   -0.89080   -2.43445   -0.81777
 H   -2.44404    0.64341   -2.54638
 H   -3.21007   -0.94893   -2.29155
 H   -1.47583   -0.84599   -2.78155
 O    0.65079   -1.81718    3.92690
 H    1.66462    0.11950    0.63884
Ca    2.64440   -1.98504    4.79718
