21
Energy:  -40373.2978212  eV PBE+vdW (tier 2 basis)
N    0.137978  -2.118865  0.041563
C    -0.245889  -0.963637  0.944871
C    0.704931  -1.127204  2.163503
O    0.759346  -0.092491  2.952001
H    -0.663585  -2.643291  -0.330030
H    0.728442  -1.832377  -0.749078
H    -0.014167  -0.027515  0.422410
C    -1.752049  -1.042438  1.282311
C    -2.255186  -0.286023  2.517789
S    -1.895041  1.527951  2.514636
C    -3.422293  2.250895  3.193665
H    -2.014397  -2.097875  1.467175
H    -2.318577  -0.716819  0.398212
H    -1.879272  -0.736101  3.444086
H    -3.349699  -0.361789  2.540389
H    -4.237956  2.065211  2.486483
H    -3.251414  3.331683  3.260781
H    -3.659041  1.842218  4.180900
O    1.311254  -2.179483  2.291360
H    0.717799  -2.727347  0.692434
Ca    0.399334  1.559198  4.072219
