21
Energy:  -40372.1171879  eV PBE+vdW (tier 2 basis)
N    0.159085  0.267951  0.321869
C    0.015454  0.132321  1.814152
C    1.406399  0.116163  2.418877
O    2.395154  -0.218075  1.717347
H    0.056773  1.259370  0.071099
H    -0.667212  -0.178147  -0.099143
H    -0.559422  0.980877  2.220053
C    -0.711935  -1.186738  2.180696
C    -2.200666  -1.186347  1.813381
S    -2.873692  -2.793574  2.335510
C    -4.470763  -2.793913  1.482379
H    -0.615198  -1.354025  3.264650
H    -0.198443  -2.037527  1.700147
H    -2.364600  -1.077075  0.726132
H    -2.718937  -0.355548  2.316626
H    -5.098556  -1.962546  1.821872
H    -4.948683  -3.739101  1.765635
H    -4.345853  -2.774064  0.393113
O    1.621139  0.378095  3.676152
H    0.822924  0.647100  4.175968
Ca    2.366339  -0.553516  -0.375748
