21
Energy:  -40372.9570498  eV PBE+vdW (tier 2 basis)
N    0.234523  -0.705805  -0.264817
C    -0.052554  -0.194820  1.076426
C    1.039561  0.744916  1.568456
O    1.102554  1.068177  2.810683
H    0.892651  -0.093152  -0.751121
H    -0.613378  -0.738329  -0.831772
H    -0.941837  0.468694  1.089274
C    -0.360702  -1.351821  2.047037
C    0.609138  -2.528098  1.971063
S    0.482721  -3.457818  0.380511
C    1.098555  -5.104812  0.839066
H    -1.381916  -1.708171  1.852215
H    -0.359785  -0.983390  3.082655
H    0.344476  -3.280841  2.725583
H    1.662263  -2.257223  2.113849
H    2.037641  -5.040005  1.397341
H    1.234625  -5.659233  -0.097497
H    0.312438  -5.584716  1.433241
O    1.847121  1.294882  0.731924
H    1.574675  -2.990713  -0.267336
Ca    2.542459  2.619472  2.324051
