21
Energy:  -40373.3262635  eV PBE+vdW (tier 2 basis)
N    0.036584  0.820780  0.534416
C    0.161401  0.381184  1.956378
C    1.220338  -0.724207  2.004914
O    1.510452  -1.374101  0.986102
H    0.794763  1.483779  0.332038
H    -0.816199  1.382258  0.438658
H    0.515364  1.212158  2.588159
C    -1.198665  -0.102686  2.553756
C    -2.241946  -0.711149  1.609435
S    -1.722722  -2.257812  0.755731
C    -3.259071  -2.738752  -0.093962
H    -1.681385  0.772716  3.011423
H    -0.996876  -0.797035  3.381573
H    -2.597703  0.006860  0.857992
H    -3.113593  -0.990912  2.216853
H    -3.620066  -1.951779  -0.763960
H    -4.009338  -2.973577  0.669482
H    -3.032147  -3.650052  -0.659035
O    1.821167  -1.025755  3.125074
H    1.590197  -0.444497  3.877957
Ca    0.304317  -1.252377  -0.837841
