21
Energy:  -40372.6044074  eV PBE+vdW (tier 2 basis)
N    -0.165653  0.657851  0.531493
C    0.117364  0.214850  1.891222
C    1.629918  -0.044346  1.833268
O    2.078465  -1.114511  1.275864
H    -0.844921  1.411769  0.475259
H    -0.424659  -0.098900  -0.098659
H    -0.017787  1.078691  2.558751
C    -0.709059  -1.001443  2.355741
C    -0.551101  -1.412154  3.819804
S    -1.487297  -0.464772  5.090376
C    -3.234805  -0.759509  4.722862
H    -0.411542  -1.876225  1.756129
H    -1.763920  -0.817277  2.106919
H    0.485225  -1.352952  4.183254
H    -0.891062  -2.442029  4.002480
H    -3.464769  -0.586426  3.668073
H    -3.801780  -0.078179  5.369342
H    -3.437623  -1.795999  5.016934
O    2.450698  0.868523  2.209278
H    -1.369359  0.788966  4.572840
Ca    4.002460  -0.118717  1.066604
