21
Energy:  -40372.5700312  eV PBE+vdW (tier 2 basis)
N    1.201910  -0.064276  0.000271
C    0.127698  -0.040792  0.939982
C    0.450023  0.442508  2.356371
O    -0.409814  1.037794  3.070006
H    1.900046  -0.789032  0.154650
H    1.650912  0.832148  -0.170381
H    -0.630937  0.678789  0.577462
C    -0.538110  -1.446344  0.987681
C    -1.712233  -1.683641  1.934862
S    -3.120624  -0.514812  1.647377
C    -4.565591  -1.460938  2.235448
H    0.233889  -2.187987  1.248060
H    -0.835441  -1.651373  -0.049464
H    -1.428241  -1.658686  2.995419
H    -2.133740  -2.677999  1.736375
H    -5.438151  -0.804185  2.141369
H    -4.441195  -1.795505  3.270175
H    -4.694586  -2.317646  1.564288
O    1.657573  0.219304  2.784933
H    1.805503  0.563097  3.693285
Ca    -2.463457  1.547086  3.305642
