21
Energy:  -40372.4223848  eV PBE+vdW (tier 2 basis)
N    0.312628  1.023132  1.247524
C    0.264540  0.035858  2.381049
C    1.710605  -0.338744  2.709861
O    2.633302  0.453785  2.404313
H    -0.655860  1.445205  1.237896
H    0.304971  0.471910  0.376093
H    -0.067723  0.603742  3.272031
C    -0.736164  -1.114613  2.158474
C    -2.202205  -0.698624  2.350578
S    -2.714498  0.617321  1.181414
C    -4.248961  1.197913  1.952466
H    -0.552440  -1.927667  2.882077
H    -0.575316  -1.556525  1.161837
H    -2.364423  -0.341816  3.378066
H    -2.842281  -1.576573  2.193848
H    -4.978393  0.380922  1.979387
H    -4.629908  1.993291  1.302108
H    -4.068318  1.596344  2.956460
O    2.031181  -1.420863  3.352112
H    1.266145  -2.004864  3.538355
Ca    2.356856  2.268977  1.294830
