21
Energy:  -40371.2352542  eV PBE+vdW (tier 2 basis)
N    -0.493082  0.884504  -0.185397
C    -0.278120  0.225058  1.098046
C    1.223678  0.446995  1.257890
O    1.704952  1.526612  1.713685
H    -1.274275  1.533572  -0.201594
H    -0.537687  0.249324  -0.979853
H    -0.763271  0.811523  1.891044
C    -0.703784  -1.250064  1.196880
C    -2.232525  -1.420237  1.128287
S    -2.775331  -3.143323  0.953021
C    -2.593241  -3.782382  2.632349
H    -0.323643  -1.681282  2.135958
H    -0.262819  -1.832126  0.365085
H    -2.637819  -0.917596  0.239409
H    -2.716214  -0.975580  2.010372
H    -1.545841  -3.798285  2.958264
H    -2.963107  -4.813719  2.598280
H    -3.207990  -3.206462  3.335395
O    2.094142  -0.436770  0.846106
H    1.656994  -1.267252  0.555876
Ca    2.957519  3.138583  2.024214
