21
Energy:  -40372.4374393  eV PBE+vdW (tier 2 basis)
N    1.388661  -0.464217  0.306602
C    0.476092  -0.217068  1.470878
C    1.142736  -0.817122  2.696826
O    1.876989  -1.828705  2.600388
H    2.170901  0.201399  0.345483
H    0.885724  -0.213337  -0.552548
H    0.307109  0.855671  1.641019
C    -0.901473  -0.902020  1.235694
C    -0.858757  -2.405541  0.914225
S    -2.466079  -3.235821  0.774557
C    -3.198375  -2.443654  -0.682171
H    -1.392584  -0.358618  0.415553
H    -1.528991  -0.745213  2.123419
H    -0.388625  -2.978118  1.739185
H    -0.310761  -2.595353  -0.049851
H    -4.140375  -2.984983  -0.837164
H    -2.574585  -2.580893  -1.574183
H    -3.434796  -1.387862  -0.513357
O    0.847122  -0.239063  3.822580
H    1.254935  -0.691772  4.595649
Ca    2.029002  -2.784472  0.626802
