21
Energy:  -40373.7299098  eV PBE+vdW (tier 2 basis)
N    -0.981656  1.663350  0.180604
C    -0.796847  0.699846  1.339682
C    0.686521  0.671706  1.690248
O    1.519695  0.716564  0.721425
H    -0.178957  1.546290  -0.465640
H    -0.991423  2.645714  0.492619
H    -1.389973  1.064899  2.185837
C    -1.239418  -0.718431  0.895254
C    -0.781580  -1.870849  1.803598
S    0.872969  -2.555772  1.344132
C    0.969979  -3.986429  2.464143
H    -0.888473  -0.903596  -0.132822
H    -2.338869  -0.733014  0.867477
H    -1.469848  -2.714379  1.667855
H    -0.781596  -1.593048  2.865254
H    0.906764  -3.685696  3.515172
H    1.927420  -4.481407  2.263853
H    0.159977  -4.680223  2.211917
O    1.025773  0.418294  2.881789
H    -1.857264  1.491479  -0.335137
Ca    2.817806  -0.601300  2.034740
