21
Energy:  -40373.7273484  eV PBE+vdW (tier 2 basis)
N    0.479733  -0.218443  -0.073092
C    0.206778  0.116189  1.386474
C    1.561255  0.202514  2.082238
O    2.535638  -0.440998  1.553995
H    1.385424  -0.728735  -0.106483
H    0.585041  0.632348  -0.644145
H    -0.317613  1.078089  1.419234
C    -0.644246  -0.965176  2.086962
C    -0.006102  -2.342152  2.339525
S    1.146261  -2.583126  3.757686
C    0.113080  -2.192276  5.201352
H    -1.559556  -1.119659  1.492279
H    -0.994338  -0.519766  3.027695
H    0.558223  -2.726856  1.478112
H    -0.808359  -3.069094  2.523737
H    -0.773018  -2.837276  5.184948
H    -0.170041  -1.135232  5.237960
H    0.707550  -2.450240  6.086222
O    1.628600  0.738435  3.223074
H    -0.263612  -0.788556  -0.499384
Ca    3.268301  -0.694990  3.681608
