21
Energy:  -40372.5262051  eV PBE+vdW (tier 2 basis)
N    0.542000  1.428502  0.892987
C    0.668786  0.595227  2.077436
C    2.093895  0.052002  1.955464
O    3.026502  0.624775  2.620092
H    0.017821  2.286200  1.045661
H    0.219321  0.958059  0.052040
H    0.724780  1.272153  2.939814
C    -0.468613  -0.408321  2.410770
C    -1.076242  -1.246761  1.283791
S    -0.144305  -2.791538  0.951043
C    -0.795873  -3.379416  -0.632720
H    -1.300912  0.206000  2.786117
H    -0.177707  -1.044485  3.261516
H    -1.178578  -0.699217  0.337262
H    -2.070676  -1.610962  1.573644
H    -0.179836  -4.236515  -0.929132
H    -0.774187  -2.589133  -1.388840
H    -1.820213  -3.719123  -0.439575
O    2.422119  -0.886319  1.116495
H    1.026078  -2.186289  0.560779
Ca    4.550653  -0.314819  1.463224
