21
Energy:  -40372.3096513  eV PBE+vdW (tier 2 basis)
N    -0.831524  -0.084245  0.009067
C    -0.070486  0.128124  1.288457
C    1.366190  0.539623  0.876850
O    1.617023  0.806076  -0.279768
H    -0.221306  0.385723  -0.700438
H    -0.751611  -1.076177  -0.252000
H    -0.478652  1.027657  1.794249
C    -0.147596  -1.049350  2.267453
C    -1.550923  -1.609191  2.532873
S    -2.791756  -0.284415  2.882888
C    -4.244438  -1.238502  3.433805
H    0.309945  -0.723423  3.210029
H    0.470389  -1.883288  1.898828
H    -1.534859  -2.239152  3.432112
H    -1.924597  -2.232055  1.708286
H    -3.981707  -1.716746  4.384302
H    -4.544873  -1.987622  2.694206
H    -5.051092  -0.517650  3.609181
O    2.190019  0.586324  1.915158
H    3.079386  0.880846  1.622123
Ca    -2.998991  0.716462  0.355331
