30
Energy: -106809.147174 eV PBE+vdW (tier 2 basis)
C    0.048764  -0.345463  0.034112
C    -0.004783  -0.199497  1.516460
O    1.068673  -0.198571  2.211677
H    0.678321  0.448634  -0.389208
H    -0.939322  -0.310082  -0.436057
H    0.527729  -1.302919  -0.214604
N    -1.182212  -0.075219  2.128860
C    -1.297619  -0.019126  3.588045
C    -2.597024  -0.588272  4.210915
O    -2.449780  -1.283046  5.210745
H    -2.020628  -0.084925  1.554463
H    -0.554517  -0.729178  3.972767
C    -0.968506  1.395385  4.164580
C    -0.390102  1.317412  5.538477
N    0.901458  0.832943  5.773586
C    -0.972654  1.621475  6.741190
C    1.069739  0.858050  7.102680
N    -0.037167  1.326778  7.704748
H    -1.870989  2.018659  4.182246
H    -0.268322  1.903909  3.483382
H    -1.954637  2.005793  6.986891
H    1.958932  0.561312  7.648662
H    -0.159939  1.441432  8.707711
N    -3.812304  -0.256585  3.706542
C    -4.166329  0.594965  2.577489
H    -4.577754  -0.705607  4.205900
H    -5.173548  0.992834  2.739432
H    -4.189723  0.044352  1.622030
H    -3.497164  1.460534  2.492192
Sr    2.418577  -0.024703  4.004892
