30
Energy: -106809.960076 eV PBE+vdW (tier 2 basis)
C    -1.887583  -2.843284  1.164167
C    -1.668806  -1.542135  1.858324
O    -0.600280  -0.886392  1.708770
H    -2.873753  -3.278187  1.356585
H    -1.111317  -3.552994  1.481674
H    -1.759186  -2.695456  0.083510
N    -2.654345  -1.060507  2.663160
C    -2.443060  0.220274  3.315423
C    -1.706590  0.075796  4.665214
O    -0.459520  0.281253  4.681781
H    -3.513171  -1.591991  2.772931
H    -1.711440  0.658894  2.641609
C    -3.522705  1.300199  3.245153
C    -2.814046  2.639465  3.221149
N    -1.475585  2.795644  2.831403
C    -3.351280  3.876669  3.476998
C    -1.247341  4.111610  2.851803
N    -2.350434  4.785224  3.233839
H    -4.250172  1.265902  4.067074
H    -4.090133  1.161828  2.311561
H    -4.343529  4.179901  3.788104
H    -0.315587  4.608278  2.602254
H    -2.429056  5.794999  3.322123
N    -2.396537  -0.278367  5.740226
C    -1.824301  -0.499531  7.070138
H    -3.399548  -0.411050  5.640496
H    -0.745714  -0.334378  7.022893
H    -2.025982  -1.527886  7.392392
H    -2.273668  0.197373  7.787328
Sr    0.533671  1.008850  2.663920
