30
Energy: -106809.380593 eV PBE+vdW (tier 2 basis)
C    -1.349867  1.076044  -0.387072
C    -1.172170  0.890132  1.091335
O    0.062459  0.912516  1.537095
H    -2.403811  1.052871  -0.676174
H    -0.797184  0.298494  -0.931892
H    -0.919790  2.040586  -0.690043
N    -2.240033  0.720199  1.827124
C    -2.133911  0.469540  3.275896
C    -1.174766  1.394057  4.032740
O    -0.022838  1.017618  4.429784
H    -3.447239  -0.542375  1.454244
H    -3.132197  0.697143  3.684239
C    -1.882162  -1.030318  3.563511
C    -3.017398  -1.853879  3.034922
N    -3.719676  -1.460413  1.906534
C    -3.592782  -3.027017  3.453555
C    -4.684146  -2.339278  1.635560
N    -4.615203  -3.301921  2.566499
H    -1.775557  -1.211013  4.641106
H    -0.942723  -1.350985  3.086153
H    -3.370521  -3.673800  4.292386
H    -5.396135  -2.290376  0.820708
H    -5.232851  -4.108731  2.609391
N    -1.589302  2.630837  4.289094
C    -2.869809  3.245675  3.926185
H    -0.949675  3.190666  4.851167
H    -3.635519  3.037417  4.685368
H    -3.199521  2.889589  2.945491
H    -2.724978  4.328877  3.868492
Sr    1.725306  0.810845  2.947598
