30
Energy: -106809.87794 eV PBE+vdW (tier 2 basis)
C    -0.718597  -0.132076  -0.645690
C    -0.570863  0.004666  0.831709
O    0.513219  0.385553  1.353959
H    -1.723006  -0.438606  -0.955476
H    0.012586  -0.865733  -1.011951
H    -0.469037  0.827300  -1.118422
N    -1.640466  -0.287704  1.621175
C    -1.492185  -0.126468  3.057668
C    -0.887537  -1.373306  3.735393
O    0.325871  -1.302906  4.092287
H    -2.510129  -0.586198  1.189893
H    -0.683783  0.599218  3.078297
C    -2.540742  0.658073  3.854059
C    -1.821082  1.444493  4.930993
N    -0.456345  1.758804  4.881984
C    -2.374496  2.032799  6.041406
C    -0.226486  2.531070  5.948086
N    -1.355092  2.713143  6.661381
H    -3.322788  0.033851  4.302670
H    -3.042126  1.353415  3.162397
H    -3.387912  2.037246  6.423789
H    0.723832  2.969927  6.233547
H    -1.438137  3.264417  7.511566
N    -1.588318  -2.483681  3.921203
C    -2.962604  -2.788678  3.532077
H    -1.060862  -3.239933  4.360367
H    -2.970211  -3.573755  2.765414
H    -3.464365  -1.901840  3.137375
H    -3.523724  -3.142701  4.405060
Sr    1.548387  0.635609  3.519783
