30
Energy: -106809.412918 eV PBE+vdW (tier 2 basis)
C    0.015398  1.515112  1.124086
C    -0.029695  0.801583  2.437314
O    0.900511  0.990857  3.303810
H    -0.870271  1.330130  0.508406
H    0.903537  1.173626  0.573043
H    0.130218  2.595229  1.281709
N    -1.032769  -0.022408  2.672408
C    -1.259496  -0.910794  3.805076
C    -2.647416  -1.547352  3.472440
O    -3.369671  -0.974661  2.652174
H    -1.847768  -0.060302  2.034417
H    -0.481877  -1.690145  3.815696
C    -1.271936  -0.221354  5.202890
C    -1.891539  1.139633  5.265404
N    -1.124412  2.299028  5.413849
C    -3.217763  1.492293  5.215558
C    -1.990949  3.317344  5.459334
N    -3.251866  2.860721  5.338366
H    -0.238906  -0.181238  5.584327
H    -1.791511  -0.894308  5.899400
H    -4.116468  0.898548  5.102753
H    -1.749646  4.366944  5.587409
H    -4.091542  3.434372  5.354540
N    -2.961986  -2.669844  4.137727
C    -4.220826  -3.390849  3.942684
H    -2.253104  -3.113265  4.713636
H    -4.038910  -4.346506  3.435834
H    -4.878081  -2.776688  3.321663
H    -4.698504  -3.580929  4.910607
Sr    1.348250  2.188221  5.130443
