30
Energy: -106809.379195 eV PBE+vdW (tier 2 basis)
C    0.159014  -0.085222  0.089442
C    0.071027  -0.096355  1.576946
O    1.140341  -0.131119  2.294177
H    0.678223  -0.993704  -0.246494
H    0.763834  0.771629  -0.236578
H    -0.823455  -0.037192  -0.390129
N    -1.108266  -0.073028  2.166670
C    -1.335848  -0.111822  3.604061
C    -2.862009  -0.403766  3.715230
O    -3.567497  -0.066016  2.764792
H    -1.998876  -0.009026  1.645423
H    -0.728433  -0.918525  4.038520
C    -0.980347  1.261151  4.272597
C    -0.346315  1.170775  5.620681
N    0.961874  0.709001  5.814054
C    -0.871943  1.520536  6.839493
C    1.192190  0.786829  7.131429
N    0.110193  1.269197  7.769342
H    -1.888261  1.873901  4.338245
H    -0.314253  1.809713  3.589240
H    -1.838684  1.926027  7.112373
H    2.107346  0.513394  7.646339
H    0.039315  1.433187  8.770682
N    -3.349861  -0.940164  4.851937
C    -2.638996  -1.630968  5.921936
H    -4.360380  -1.070447  4.818536
H    -3.188993  -1.497903  6.860142
H    -1.639135  -1.209797  6.064699
H    -2.552218  -2.708300  5.720436
Sr    2.556906  0.125385  3.976119
