30
Energy: -106809.240414 eV PBE+vdW (tier 2 basis)
C    0.883608  -0.198414  0.722273
C    -0.124321  0.503173  1.582673
O    -0.158584  1.820144  1.492319
H    0.702595  0.039944  -0.334900
H    0.846265  -1.281314  0.867739
H    1.894833  0.160486  0.957739
N    -0.902233  -0.206070  2.353939
C    -1.900776  0.521760  3.122633
C    -1.254976  1.389128  4.217725
O    -1.326893  2.659887  4.124943
H    -5.695356  -1.012088  3.250336
H    -2.436529  1.253719  2.488755
C    -2.961719  -0.453991  3.694693
C    -3.651655  -1.256504  2.638563
N    -5.031683  -1.422087  2.598035
C    -3.165688  -2.005463  1.594258
C    -5.383219  -2.228596  1.588075
N    -4.253137  -2.584440  0.971074
H    -3.708188  0.114319  4.268748
H    -2.490843  -1.153978  4.397015
H    -2.143930  -2.156361  1.274733
H    -6.388920  -2.532920  1.324635
H    -4.211350  -3.202943  0.164588
N    -0.578466  0.853201  5.229564
C    -0.222836  -0.546455  5.473805
H    -0.217213  1.538223  5.892470
H    -0.234836  -1.102136  4.531543
H    -0.897599  -1.003689  6.209288
H    0.795152  -0.575633  5.877391
Sr    -0.493502  3.818098  2.295349
