30
Energy: -106809.826525 eV PBE+vdW (tier 2 basis)
C    -0.743430  -0.893902  -0.096419
C    -0.470003  -0.939967  1.367765
O    0.630162  -1.334677  1.832602
H    -1.748216  -0.544153  -0.350376
H    -0.624164  -1.918986  -0.479280
H    0.011439  -0.282859  -0.607498
N    -1.422288  -0.535086  2.265651
C    -2.325834  0.604271  2.124040
C    -1.529893  1.837925  1.637191
O    -0.280633  1.886658  1.830354
H    -1.278418  -0.868481  3.217836
H    -3.125911  0.368642  1.408817
C    -2.983167  0.864404  3.496630
C    -2.106987  1.312031  4.643035
N    -0.759497  0.990907  4.844371
C    -2.569269  1.987296  5.748908
C    -0.449791  1.467574  6.056406
N    -1.513257  2.069385  6.621192
H    -3.499080  -0.069879  3.773952
H    -3.780958  1.606691  3.366555
H    -3.547181  2.386865  5.989714
H    0.512302  1.389924  6.553116
H    -1.532945  2.500508  7.541971
N    -2.163722  2.839380  1.040774
C    -3.586974  2.990138  0.731287
H    -1.560130  3.625261  0.796826
H    -4.073704  2.017200  0.616925
H    -3.681540  3.530687  -0.216046
H    -4.098405  3.563878  1.515095
Sr    1.174496  0.593364  3.171604
