30
Energy: -106809.339429 eV PBE+vdW (tier 2 basis)
C    -0.144574  -1.017241  2.444959
C    0.051438  0.380753  1.954623
O    1.195865  0.932593  2.010360
H    0.520869  -1.175171  3.301913
H    0.151106  -1.741288  1.669712
H    -1.178084  -1.226670  2.738134
N    -0.986521  1.075140  1.437707
C    -1.938423  0.488100  0.496280
C    -1.189015  0.330081  -0.873697
O    0.080250  0.556959  -0.921989
H    -0.773847  2.059468  1.267661
H    -2.186847  -0.524401  0.846091
C    -3.239252  1.329061  0.443054
C    -4.447694  0.578258  -0.028040
N    -4.423340  -0.197228  -1.171957
C    -5.712589  0.549571  0.511354
C    -5.645866  -0.686660  -1.327065
N    -6.450915  -0.251369  -0.328936
H    -3.071293  2.220452  -0.184707
H    -3.431687  1.690182  1.461500
H    -6.142681  1.021967  1.385726
H    -5.977967  -1.342007  -2.124031
H    -7.434784  -0.478249  -0.219969
N    -1.883657  -0.041329  -1.911574
C    -1.312016  -0.243117  -3.239543
H    -2.958245  -0.200489  -1.762418
H    -2.123778  -0.500754  -3.925328
H    -0.580696  -1.061576  -3.230976
H    -0.821066  0.670446  -3.597520
Sr    2.111149  1.157261  -0.112277
