30
Energy: -106809.984398 eV PBE+vdW (tier 2 basis)
C    -0.163528  0.985832  0.068781
C    -0.160477  0.692998  1.533595
O    0.868862  0.941333  2.239034
H    0.000506  2.063244  -0.073838
H    -1.095838  0.698287  -0.427596
H    0.677442  0.468804  -0.411289
N    -1.262138  0.177919  2.087197
C    -1.480105  -0.047399  3.521849
C    -0.712176  -1.300373  4.013114
O    0.493936  -1.124357  4.421474
H    -2.061782  -0.021800  1.485101
H    -1.002914  0.787842  4.055508
C    -2.995144  0.020223  3.832309
C    -3.885762  -0.803157  2.953243
N    -3.706799  -2.169601  2.821502
C    -5.006583  -0.421378  2.247749
C    -4.698406  -2.608079  2.061495
N    -5.505168  -1.579306  1.698487
H    -3.298622  1.072919  3.758763
H    -3.130872  -0.265088  4.886666
H    -5.497459  0.536298  2.123158
H    -4.866713  -3.635185  1.757223
H    -6.345668  -1.655316  1.133179
N    -1.292374  -2.472140  3.998289
C    -0.649014  -3.700418  4.455657
H    -2.273246  -2.535243  3.566419
H    -0.009860  -4.121976  3.667711
H    -1.429380  -4.426855  4.700464
H    -0.039250  -3.505262  5.343771
Sr    2.220532  0.248237  3.936984
