30
Energy: -106810.570926 eV PBE+vdW (tier 2 basis)
C    -0.280387  0.819946  0.029016
C    -0.306015  0.665635  1.516602
O    0.559056  1.232581  2.238625
H    0.676615  0.431678  -0.346706
H    -0.312453  1.887760  -0.223697
H    -1.099593  0.304033  -0.482223
N    -1.272358  -0.110114  2.048892
C    -1.441283  -0.493195  3.462596
C    -1.997639  0.686796  4.283000
O    -1.338287  1.743743  4.465323
H    -1.926999  -0.522992  1.391208
H    -2.221455  -1.263602  3.443126
C    -0.142086  -1.170314  4.035115
C    0.255098  -0.893576  5.450546
N    0.964606  0.250756  5.822246
C    0.126174  -1.710304  6.548370
C    1.246334  0.107900  7.117083
N    0.754509  -1.059480  7.582861
H    0.698825  -0.908808  3.381633
H    -0.275674  -2.252334  3.919454
H    -0.321107  -2.689395  6.669958
H    1.799993  0.804589  7.737357
H    0.859710  -1.409763  8.531217
N    -3.220884  0.541737  4.782864
C    -3.901592  1.572862  5.568861
H    -3.726843  -0.316879  4.590130
H    -3.267353  1.890863  6.403766
H    -4.832523  1.154026  5.959214
H    -4.130622  2.443966  4.942632
Sr    0.939231  2.265887  4.283928
