30
Energy: -106809.599229 eV PBE+vdW (tier 2 basis)
C    0.250937  -0.259192  0.156836
C    0.058828  -0.132748  1.632218
O    1.074766  0.000596  2.402214
H    0.769156  0.637642  -0.210220
H    -0.694366  -0.374555  -0.381848
H    0.902882  -1.115854  -0.059247
N    -1.177595  -0.152758  2.113877
C    -1.524952  0.104863  3.515215
C    -1.194013  -1.122239  4.399312
O    -0.053153  -1.114105  4.978124
H    -2.035292  -0.229063  1.482356
H    -0.813774  0.852361  3.897229
C    -2.926536  0.765031  3.624750
C    -3.999266  0.316420  2.673498
N    -3.699859  -0.119367  1.392693
C    -5.365450  0.352259  2.835340
C    -4.860503  -0.345150  0.792054
N    -5.886390  -0.067725  1.632573
H    -2.750386  1.840066  3.462482
H    -3.278987  0.679025  4.661796
H    -5.995517  0.646949  3.665604
H    -4.997403  -0.697751  -0.223940
H    -6.873950  -0.138010  1.406303
N    -1.987912  -2.164815  4.578087
C    -3.299204  -2.481727  4.008044
H    -1.600654  -2.857349  5.219764
H    -3.414555  -3.569677  4.028418
H    -3.368537  -2.138577  2.972891
H    -4.103754  -2.030178  4.600218
Sr    2.051939  -0.419965  4.380728
