30
Energy: -106809.058118 eV PBE+vdW (tier 2 basis)
C    -0.067971  -0.064748  -0.072842
C    0.041402  0.362225  1.369245
O    0.986930  0.958791  1.840723
H    0.706900  0.458339  -0.640102
H    -1.049568  0.160834  -0.510880
H    0.114469  -1.144998  -0.178762
N    -1.059870  0.080966  2.224382
C    -1.935068  -1.063940  2.092538
C    -3.342684  -0.716291  2.602066
O    -4.109614  -1.623339  3.074803
H    -0.806119  0.324968  3.184009
H    -2.067988  -1.259095  1.015094
C    -1.354227  -2.374216  2.699849
C    -1.031874  -2.342884  4.161086
N    -1.929398  -2.748996  5.155390
C    0.140310  -1.951865  4.762835
C    -1.288422  -2.603457  6.321041
N    -0.048456  -2.123469  6.114328
H    -0.431169  -2.585082  2.143812
H    -2.017128  -3.221399  2.456365
H    1.074782  -1.590845  4.348369
H    -1.677552  -2.836988  7.306229
H    0.641620  -1.938537  6.838618
N    -3.714920  0.540809  2.483194
C    -5.027669  1.096500  2.794096
H    -2.979822  1.162880  2.134713
H    -5.359047  1.720604  1.956611
H    -4.972896  1.718564  3.696517
H    -5.743909  0.284997  2.944133
Sr    -4.244531  -3.339723  4.515292
