30
Energy: -106809.435703 eV PBE+vdW (tier 2 basis)
C    -0.368532  1.287663  1.175181
C    -0.022821  0.040907  1.937194
O    1.255737  -0.173108  2.144608
H    0.121885  1.273609  0.192212
H    0.020910  2.164388  1.710570
H    -1.448290  1.403335  1.049956
N    -1.001107  -0.728479  2.333844
C    -0.787042  -2.007892  3.030733
C    0.227378  -2.001195  4.184936
O    1.448880  -2.323950  4.049116
H    -2.240983  -1.281191  1.195770
H    -1.755176  -2.234010  3.508760
C    -0.529952  -3.151835  2.017425
C    -1.705074  -3.306231  1.100054
N    -2.489479  -2.216046  0.758287
C    -2.253276  -4.388602  0.459213
C    -3.477030  -2.596578  -0.051280
N    -3.342633  -3.916591  -0.246685
H    -0.349598  -4.102764  2.536153
H    0.373133  -2.926870  1.428701
H    -1.971014  -5.433381  0.449285
H    -4.249221  -1.965247  -0.473659
H    -3.959744  -4.480288  -0.825992
N    -0.260781  -1.644923  5.368663
C    0.509956  -1.558235  6.606169
H    -1.244328  -1.391118  5.409485
H    -0.141969  -1.810115  7.448285
H    0.898698  -0.541665  6.756285
H    1.339358  -2.270127  6.569158
Sr    3.051114  -1.146458  2.890574
