30
Energy: -106809.272845 eV PBE+vdW (tier 2 basis)
C    -0.221471  0.919185  0.026061
C    -0.232520  0.416147  1.429632
O    0.857036  0.101312  2.020615
H    0.244504  0.163991  -0.622145
H    0.401471  1.821907  -0.033971
H    -1.221749  1.149660  -0.354612
N    -1.389518  0.288764  2.076581
C    -1.490722  -0.217218  3.450944
C    -2.972084  -0.613353  3.759085
O    -3.629001  0.070683  4.533735
H    -2.242563  0.576039  1.600601
H    -0.861760  -1.120160  3.505636
C    -1.017121  0.831082  4.486751
C    -0.427455  0.213986  5.710081
N    0.881761  -0.283686  5.742231
C    -1.009241  0.004954  6.933968
C    1.064589  -0.769620  6.977542
N    -0.052991  -0.609982  7.709462
H    -1.895983  1.426980  4.767150
H    -0.303839  1.527981  4.018982
H    -2.001791  0.239207  7.299534
H    1.969158  -1.224015  7.367106
H    -0.165508  -0.888405  8.681177
N    -3.461710  -1.700190  3.114631
C    -2.746028  -2.685715  2.310112
H    -4.430078  -1.904391  3.352976
H    -3.481473  -3.365984  1.870745
H    -2.052915  -3.290128  2.913924
H    -2.198668  -2.222069  1.479386
Sr    2.313764  -0.141429  3.724256
