30
Energy: -106810.571219 eV PBE+vdW (tier 2 basis)
C    -0.243125  0.713589  0.001137
C    -0.284006  0.604176  1.492385
O    0.590229  1.169771  2.204265
H    -0.253726  1.773920  -0.283135
H    -1.067457  0.197834  -0.501931
H    0.709720  0.297373  -0.354452
N    -1.274819  -0.129806  2.038956
C    -1.466909  -0.466597  3.461373
C    -2.005679  0.750352  4.240489
O    -1.318773  1.794805  4.390683
H    -1.934797  -0.544118  1.387550
H    -2.263251  -1.220612  3.455229
C    -0.189550  -1.155214  4.068218
C    0.198816  -0.845384  5.479193
N    0.931460  0.292578  5.824325
C    0.038341  -1.624961  6.599639
C    1.195352  0.182872  7.126080
N    0.670643  -0.957795  7.621243
H    0.664045  -0.932781  3.416746
H    -0.346734  -2.236909  3.983135
H    -0.433211  -2.589247  6.745438
H    1.758504  0.885069  7.731395
H    0.757015  -1.281249  8.580957
N    -3.237953  0.635723  4.728711
C    -3.943586  1.674388  5.477363
H    -3.742164  -0.228660  4.552593
H    -4.282014  1.270586  6.438566
H    -4.815047  2.018447  4.906868
H    -3.265734  2.513748  5.646322
Sr    0.971408  2.256102  4.221659
