30
Energy: -106809.90878 eV PBE+vdW (tier 2 basis)
C    0.009602  0.640052  -0.020020
C    -0.056537  0.546994  1.469001
O    0.930377  0.944096  2.182890
H    0.908273  0.127621  -0.386593
H    0.108986  1.698670  -0.299512
H    -0.876600  0.224252  -0.509046
N    -1.159323  0.060984  2.024916
C    -1.442295  0.022613  3.466931
C    -0.715898  -1.169975  4.120162
O    0.504012  -1.029799  4.462689
H    -1.944003  -0.338884  1.445983
H    -0.991642  0.916088  3.925431
C    -2.969959  0.093991  3.685095
C    -3.763477  -0.930170  2.925852
N    -3.509902  -1.156866  1.580451
C    -4.845561  -1.687527  3.324646
C    -4.421651  -2.025924  1.174907
N    -5.246185  -2.368227  2.198284
H    -3.284246  1.101849  3.371947
H    -3.182789  0.028521  4.760168
H    -5.373232  -1.766521  4.267732
H    -4.521983  -2.426214  0.171902
H    -6.040331  -2.998570  2.136357
N    -1.374638  -2.298885  4.296709
C    -0.826294  -3.516940  4.889764
H    -2.345733  -2.316190  3.967877
H    0.064085  -3.270791  5.473415
H    -0.562363  -4.237142  4.104324
H    -1.580763  -3.964969  5.544729
Sr    2.237070  0.378865  3.922008
