30
Energy: -106809.290469 eV PBE+vdW (tier 2 basis)
C    -1.464243  0.642608  -0.057551
C    -1.179720  0.641198  1.418175
O    -0.579895  1.532614  2.005501
H    -2.149845  1.470804  -0.281710
H    -1.902429  -0.292114  -0.425259
H    -0.532353  0.847195  -0.598222
N    -1.634939  -0.469246  2.133042
C    -1.502519  -0.455819  3.574083
C    -0.859757  -1.744335  4.066798
O    -1.493366  -2.529439  4.862305
H    -2.213164  -1.164522  1.672255
H    -0.790907  0.376712  3.747237
C    -2.823424  -0.079124  4.292220
C    -2.686181  0.444748  5.689939
N    -2.768071  -0.349571  6.838634
C    -2.489352  1.748571  6.076017
C    -2.625362  0.478442  7.880842
N    -2.452927  1.741239  7.450154
H    -3.541951  -0.915062  4.246371
H    -3.272726  0.713430  3.680196
H    -2.385585  2.659143  5.497998
H    -2.649523  0.207054  8.930663
H    -2.334387  2.557044  8.045793
N    0.360351  -2.070573  3.673261
C    1.268925  -1.321045  2.801036
H    0.687309  -2.979127  4.000182
H    2.295472  -1.550754  3.102618
H    1.104051  -0.243226  2.894512
H    1.127099  -1.618081  1.754285
Sr    -2.845346  -2.798580  6.623302
