30
Energy: -106810.461918 eV PBE+vdW (tier 2 basis)
C    -1.274454  -0.489110  -0.559254
C    -0.809072  -0.414013  0.860551
O    0.285421  -0.935683  1.207552
H    -0.507484  -0.054459  -1.213545
H    -2.228679  0.016814  -0.738556
H    -1.371504  -1.547001  -0.840330
N    -1.608837  0.213374  1.747130
C    -1.435716  0.326499  3.205568
C    -0.355698  1.367887  3.548427
O    0.833989  1.227389  3.153552
H    -2.470007  0.598788  1.371393
H    -2.393552  0.720380  3.558014
C    -1.239062  -1.079775  3.885834
C    -0.261769  -1.206135  5.011491
N    1.113480  -1.339479  4.806946
C    -0.523826  -1.336368  6.354549
C    1.648897  -1.543527  6.010397
N    0.691300  -1.545771  6.961347
H    -0.966054  -1.800787  3.105991
H    -2.224059  -1.396666  4.247846
H    -1.453055  -1.332103  6.911346
H    2.699453  -1.700136  6.230707
H    0.842889  -1.705834  7.953606
N    -0.699591  2.431499  4.270595
C    -2.012617  2.804929  4.808212
H    0.070046  3.077312  4.444505
H    -1.887462  3.724097  5.387185
H    -2.404672  2.033644  5.481665
H    -2.732957  3.008543  4.006060
Sr    2.126913  -0.639134  2.588217
