30
Energy: -106809.900497 eV PBE+vdW (tier 2 basis)
C    -0.182611  -1.237799  -0.687803
C    -0.988782  -1.719196  0.469468
O    -0.495527  -2.433528  1.379712
H    -0.749460  -0.638731  -1.406232
H    0.201690  -2.130071  -1.205578
H    0.696371  -0.681524  -0.337894
N    -2.311483  -1.379453  0.583186
C    -2.904624  -0.080525  0.274538
C    -2.013140  1.045903  0.856556
O    -1.268095  0.810185  1.847589
H    -2.852261  -1.975569  1.208423
H    -2.998430  0.053005  -0.814095
C    -4.327466  -0.050604  0.873695
C    -4.490260  -0.110756  2.374214
N    -3.642999  -0.749918  3.286332
C    -5.604824  0.335472  3.045976
C    -4.265157  -0.681870  4.469981
N    -5.441288  -0.037136  4.356473
H    -4.872989  -0.892001  0.414434
H    -4.834945  0.853327  0.512591
H    -6.490232  0.856443  2.701567
H    -3.907165  -1.088449  5.410660
H    -6.101356  0.133179  5.111051
N    -2.096485  2.235188  0.277994
C    -1.384982  3.439197  0.710795
H    -2.700077  2.323240  -0.536506
H    -2.100099  4.186495  1.075652
H    -0.829559  3.858262  -0.135940
H    -0.690090  3.174110  1.510538
Sr    -1.083674  -1.070874  3.278622
