30
Energy: -106809.316092 eV PBE+vdW (tier 2 basis)
C    -0.552240  1.761165  0.967141
C    -0.552787  1.122773  2.314897
O    0.401535  1.358026  3.141113
H    -0.497658  2.852436  1.074293
H    -1.433847  1.498310  0.374639
H    0.351365  1.446195  0.426305
N    -1.537305  0.304985  2.644966
C    -1.597830  -0.541143  3.825571
C    -2.297712  -1.840295  3.292686
O    -2.969564  -1.738804  2.266224
H    -2.232451  -0.013050  1.945539
H    -0.570169  -0.761035  4.156250
C    -2.459758  0.035013  4.986158
C    -2.362228  1.487362  5.345362
N    -1.215339  2.159125  5.782004
C    -3.432454  2.344481  5.448433
C    -1.617830  3.386975  6.140074
N    -2.942060  3.525338  5.949329
H    -2.260261  -0.576697  5.880285
H    -3.513779  -0.148920  4.735923
H    -4.484519  2.202819  5.231577
H    -0.996605  4.179731  6.545804
H    -3.488307  4.356764  6.160700
N    -2.152580  -2.954268  4.026642
C    -2.798831  -4.224324  3.689285
H    -1.543323  -2.936094  4.837226
H    -3.398901  -4.577557  4.535845
H    -2.045706  -4.980258  3.436471
H    -3.448332  -4.059748  2.825640
Sr    1.160474  1.796699  5.172618
