30
Energy: -106809.625215 eV PBE+vdW (tier 2 basis)
C    0.803143  0.983416  0.522335
C    0.161615  0.735736  1.852204
O    0.339115  1.556655  2.806664
H    1.894117  0.936991  0.654421
H    0.569928  1.997878  0.175746
H    0.511347  0.262541  -0.248291
N    -0.582113  -0.368767  1.989391
C    -1.137450  -1.004603  3.195185
C    -2.284293  -0.224626  3.877949
O    -2.366289  1.052383  3.825297
H    -0.659192  -0.936716  1.150243
H    -1.590667  -1.928008  2.814280
C    -0.054243  -1.440060  4.230254
C    -0.362454  -2.798567  4.795955
N    -1.666731  -3.234046  4.954608
C    0.502777  -3.783815  5.212383
C    -1.593063  -4.457087  5.461867
N    -0.298895  -4.819324  5.633548
H    0.028214  -0.686366  5.030193
H    0.921818  -1.467433  3.729605
H    1.583710  -3.841296  5.243049
H    -2.431504  -5.099060  5.707220
H    0.024726  -5.710665  5.996954
N    -3.125548  -0.971097  4.551674
C    -4.251927  -0.465093  5.325986
H    -2.822441  -1.988473  4.675875
H    -4.581479  0.500153  4.931965
H    -3.975280  -0.355849  6.383900
H    -5.075029  -1.183809  5.256241
Sr    -1.084909  2.893005  3.970294
