30
Energy: -106809.467476 eV PBE+vdW (tier 2 basis)
C    -1.401512  0.972690  -0.528477
C    -1.115274  0.931912  0.937125
O    0.093212  1.001782  1.349292
H    -2.463344  0.845048  -0.758633
H    -0.819077  0.190052  -1.032288
H    -1.061512  1.936275  -0.933450
N    -2.149383  0.836783  1.769563
C    -2.129922  0.568574  3.222168
C    -1.210714  1.490937  4.023446
O    0.001893  1.182972  4.266134
H    -3.031188  0.429224  1.386855
H    -3.157393  0.789450  3.540200
C    -1.907024  -0.933527  3.491278
C    -3.075792  -1.712127  2.953320
N    -3.847690  -1.213661  1.914907
C    -3.574615  -2.930552  3.355868
C    -4.791579  -2.115868  1.693642
N    -4.656052  -3.167159  2.541095
H    -1.798074  -1.104901  4.571161
H    -0.961099  -1.257015  3.019985
H    -3.272743  -3.624894  4.130205
H    -5.577593  -2.048863  0.949796
H    -5.257020  -3.984980  2.575068
N    -1.717943  2.611361  4.518329
C    -3.077057  3.145458  4.364594
H    -1.077770  3.145595  5.105708
H    -3.787264  2.607195  5.005589
H    -3.401020  3.099856  3.319863
H    -3.061895  4.194853  4.672361
Sr    1.738444  0.764527  2.849298
