30
Energy: -106809.535242 eV PBE+vdW (tier 2 basis)
C    0.675099  1.825726  1.057295
C    0.488635  0.970387  2.265817
O    1.485602  0.634161  2.978678
H    1.431846  1.379008  0.400055
H    1.066796  2.800248  1.382623
H    -0.248833  1.985243  0.492308
N    -0.746039  0.568533  2.586660
C    -1.123868  -0.073606  3.854564
C    -0.826825  -1.580961  3.820435
O    0.356153  -1.974130  4.080486
H    -1.508337  0.917277  2.009549
H    -0.468683  0.360521  4.628133
C    -2.544623  0.346150  4.251180
C    -2.545002  1.811139  4.588783
N    -1.415169  2.387853  5.133929
C    -3.562799  2.735028  4.504047
C    -1.746769  3.644112  5.385901
N    -3.033990  3.893449  5.021945
H    -2.841573  -0.248894  5.130305
H    -3.277629  0.130951  3.455862
H    -4.586654  2.671302  4.155960
H    -1.102479  4.400109  5.821448
H    -3.523751  4.777386  5.120374
N    -1.799454  -2.426299  3.529850
C    -1.676999  -3.882722  3.461548
H    -2.720247  -2.031429  3.352784
H    -1.823160  -4.220740  2.428159
H    -2.441252  -4.341050  4.099508
H    -0.684161  -4.176694  3.808060
Sr    2.402166  -0.947060  4.306754
