27
Energy: -103802.928644 eV PBE+vdW (tier 2 basis)
C    -0.382977  -1.672071  0.176469
C    -0.665721  -1.074456  1.518364
O    -0.393844  -1.725744  2.568238
H    -0.646203  -1.021434  -0.663598
H    -0.940833  -2.614836  0.088101
H    0.683403  -1.927076  0.113568
N    -1.212501  0.153345  1.544496
C    -1.689336  1.016756  2.642252
C    -0.621198  1.425413  3.670652
O    0.012288  0.569138  4.362319
H    -1.370766  0.553022  0.623540
H    -1.989408  1.937402  2.127099
C    -3.020414  0.555527  3.320917
O    -3.387359  1.704270  4.073412
C    -2.993405  -0.696956  4.199757
H    -3.722580  0.379664  2.486652
H    -4.339753  1.692573  4.264432
H    -4.006388  -0.904458  4.568918
H    -2.381660  -0.516400  5.101441
H    -2.674162  -1.588871  3.642568
N    -0.432101  2.723836  3.831318
C    0.461898  3.333070  4.814738
H    -1.021055  3.354620  3.293060
H    0.939026  4.209631  4.364429
H    1.225880  2.610650  5.110509
H    -0.109367  3.648664  5.697701
Sr    0.198931  -1.665541  4.753605
