27
Energy: -103802.999582 eV PBE+vdW (tier 2 basis)
C    0.338258  0.960590  0.055550
C    -0.435948  0.631858  1.287579
O    -0.782962  1.549867  2.098729
H    1.248156  1.510603  0.329456
H    -0.266796  1.633613  -0.568859
H    0.611473  0.078138  -0.531291
N    -0.761868  -0.643271  1.519855
C    -1.704310  -1.107580  2.548963
C    -1.088945  -1.018459  3.960654
O    -1.244066  0.049196  4.633893
H    -0.618477  -1.308455  0.758285
H    -2.567126  -0.421629  2.555243
C    -2.229765  -2.510037  2.146751
O    -2.481800  -2.387572  0.751417
C    -3.458761  -2.909844  2.951753
H    -1.424626  -3.260836  2.299392
H    -2.891922  -3.203284  0.418337
H    -3.793006  -3.912737  2.656982
H    -4.284405  -2.209112  2.771975
H    -3.251267  -2.947866  4.030150
N    -0.411959  -2.047520  4.437436
C    0.222259  -2.107065  5.755811
H    -0.324929  -2.867837  3.841520
H    -0.281135  -1.413730  6.434210
H    1.285707  -1.845141  5.680244
H    0.134140  -3.127193  6.142624
Sr    -1.337920  2.293303  4.155341
