27
Energy: -103802.331658 eV PBE+vdW (tier 2 basis)
C    0.224021  0.956899  0.015318
C    -0.160474  0.322248  1.318669
O    -0.143961  0.884940  2.400409
H    0.297431  0.248544  -0.817657
H    1.182445  1.474566  0.141784
H    -0.520172  1.726073  -0.233877
N    -0.549099  -1.039275  1.256199
C    -1.092971  -1.615437  2.462599
C    -0.315602  -2.825780  2.962978
O    -0.772858  -3.491567  3.961435
H    -0.796692  -1.426277  0.349149
H    -0.911659  -0.808450  3.209735
C    -2.625335  -1.822101  2.374530
O    -3.194181  -1.900782  3.763972
C    -3.094960  -3.020397  1.574876
H    -3.023502  -0.890949  1.951324
H    -3.925817  -1.262004  3.810913
H    -4.189813  -3.059883  1.528354
H    -2.720244  -3.968684  1.986043
H    -2.737905  -2.952377  0.537940
N    0.830914  -3.112379  2.389813
C    1.765728  -4.163378  2.783359
H    1.088319  -2.484785  1.624507
H    1.990460  -4.793713  1.915272
H    1.320456  -4.771783  3.573545
H    2.697106  -3.710528  3.145338
Sr    -2.434635  -3.442742  5.445474
