27
Energy: -103802.35463 eV PBE+vdW (tier 2 basis)
C    -0.320026  -0.091720  0.003049
C    -0.550132  0.504883  1.360573
O    -0.156129  1.616759  1.708621
H    -0.521551  0.668923  -0.760111
H    -0.923948  -0.983946  -0.195703
H    0.742024  -0.360336  -0.088675
N    -1.263798  -0.262086  2.271967
C    -1.464350  0.221549  3.625278
C    -1.904219  1.700579  3.620132
O    -1.437440  2.532175  4.470491
H    -1.586167  -1.192530  2.024656
H    -2.317184  -0.338174  4.043577
C    -0.250084  -0.105525  4.548190
O    -0.581305  0.284873  5.947799
C    1.101037  0.501779  4.199659
H    -0.151950  -1.199442  4.547742
H    -0.782996  -0.508043  6.470710
H    1.067124  1.590256  4.025389
H    1.478082  0.095995  3.254037
H    1.837472  0.238515  4.971135
N    -2.890598  2.041111  2.813288
C    -3.422627  3.397785  2.680568
H    -3.197619  1.343705  2.139384
H    -3.641010  3.816011  3.668300
H    -4.347676  3.350796  2.100177
H    -2.699887  4.040807  2.161551
Sr    -0.214043  2.654301  6.321214
