27
Energy: -103803.277829 eV PBE+vdW (tier 2 basis)
C    0.947106  -0.919416  0.458272
C    0.334425  -0.317152  1.678671
O    0.927322  0.615151  2.311752
H    0.360661  -1.744640  0.041846
H    1.960953  -1.271923  0.687675
H    1.048146  -0.133554  -0.304299
N    -0.855993  -0.765115  2.087979
C    -1.650621  -0.200973  3.184222
C    -1.088182  -0.662523  4.547996
O    -0.146522  0.017284  5.077684
H    -1.284053  -1.552547  1.600818
H    -1.532704  0.891765  3.165263
C    -3.143996  -0.519516  2.949638
O    -3.192176  -1.958003  2.844869
C    -3.726737  0.177840  1.729635
H    -3.688158  -0.190508  3.852616
H    -4.085013  -2.238083  2.580132
H    -3.207834  -0.097153  0.802349
H    -3.686493  1.269045  1.845961
H    -4.785404  -0.090808  1.616978
N    -1.594362  -1.745243  5.098884
C    -1.187743  -2.322355  6.378151
H    -2.320773  -2.220001  4.545251
H    -0.623481  -3.248575  6.209244
H    -2.083311  -2.557131  6.963993
H    -0.569108  -1.607249  6.925037
Sr    1.544049  1.379384  4.361381
