27
Energy: -103802.246699 eV PBE+vdW (tier 2 basis)
C    0.638297  0.155869  0.100515
C    0.155796  -0.039414  1.496048
O    0.784009  -0.828689  2.297988
H    1.685108  0.487684  0.113848
H    0.034819  0.878010  -0.457823
H    0.614313  -0.811102  -0.422291
N    -0.922475  0.595897  1.911838
C    -1.565723  0.478858  3.216882
C    -2.924845  1.223510  2.980537
O    -2.947688  2.068510  2.084492
H    -1.430668  1.281424  1.322249
H    -1.733859  -0.581767  3.449946
C    -0.692708  1.109236  4.353122
O    -0.038845  -0.003385  5.123326
C    -1.384442  2.038056  5.328424
H    0.134589  1.646356  3.870256
H    -0.286510  0.126559  6.056077
H    -0.655052  2.466411  6.029105
H    -2.181011  1.539426  5.896269
H    -1.836011  2.879559  4.787248
N    -3.987051  0.923005  3.746659
C    -4.164080  -0.116864  4.751750
H    -4.814182  1.467955  3.503097
H    -3.221371  -0.637548  4.947459
H    -4.900686  -0.857430  4.413679
H    -4.517328  0.319827  5.694853
Sr    1.583119  -1.567352  4.207444
