27
Energy: -103802.851217 eV PBE+vdW (tier 2 basis)
C    0.712566  0.142516  0.295698
C    0.440127  0.058517  1.761241
O    1.400850  0.049333  2.589980
H    -0.188739  0.277826  -0.310658
H    1.207070  -0.790804  -0.012581
H    1.415518  0.960535  0.095842
N    -0.837664  -0.010633  2.160009
C    -1.384832  -0.348343  3.488852
C    -1.174765  0.765120  4.521189
O    -0.022970  0.978656  5.018635
H    -1.517389  -0.059105  1.406343
H    -2.459811  -0.462031  3.309939
C    -0.904940  -1.729009  4.023245
O    -0.967770  -2.585115  2.901654
C    -1.758862  -2.185724  5.200158
H    0.152264  -1.641988  4.361933
H    -1.098382  -3.502729  3.192726
H    -1.409077  -3.159787  5.566877
H    -2.811017  -2.292183  4.903101
H    -1.700723  -1.488343  6.047695
N    -2.210824  1.483646  4.926091
C    -3.615341  1.405103  4.501840
H    -1.987510  2.174726  5.643070
H    -3.706566  1.493399  3.413501
H    -4.147420  2.246325  4.954381
H    -4.082800  0.475541  4.848956
Sr    2.196008  0.565552  4.633282
