27
Energy: -103803.546586 eV PBE+vdW (tier 2 basis)
C    -0.343499  -0.112671  0.191886
C    -0.224407  0.013469  1.677227
O    0.804577  0.510145  2.202046
H    -1.281831  -0.568240  -0.140608
H    0.499474  -0.707241  -0.184864
H    -0.250153  0.886731  -0.255167
N    -1.266352  -0.414659  2.425487
C    -1.405083  -0.373619  3.890347
C    -1.150133  1.038747  4.461547
O    -0.026187  1.350492  4.948219
H    -2.049514  -0.810143  1.913840
H    -2.465961  -0.592285  4.075269
C    -0.671308  -1.495322  4.666767
O    0.785665  -1.409661  4.480223
C    -1.152391  -2.880399  4.271011
H    -0.872162  -1.313845  5.734979
H    1.130634  -2.312643  4.590414
H    -0.640186  -3.649174  4.866672
H    -0.976795  -3.087388  3.207219
H    -2.224097  -2.994996  4.479668
N    -2.149701  1.912645  4.453893
C    -3.519596  1.732978  3.962375
H    -1.917408  2.817805  4.863410
H    -4.059227  0.977945  4.548923
H    -3.529576  1.467110  2.898638
H    -4.045724  2.684574  4.076790
Sr    2.050941  0.689644  4.149788
