27
Energy: -103802.943478 eV PBE+vdW (tier 2 basis)
C    -0.584397  1.441426  0.273991
C    -0.452097  0.701691  1.563825
O    0.549704  -0.050373  1.769555
H    0.353560  1.963508  0.048272
H    -1.413496  2.156105  0.261974
H    -0.744129  0.703790  -0.526670
N    -1.416812  0.855519  2.480353
C    -1.667087  0.077839  3.710447
C    -0.641795  0.359034  4.818305
O    0.541798  -0.095697  4.746452
H    -2.198652  1.434353  2.186606
H    -2.649069  0.432105  4.051741
C    -1.842032  -1.446250  3.448981
O    -2.637787  -1.519941  2.284677
C    -2.447219  -2.146068  4.659663
H    -0.843358  -1.895307  3.241814
H    -3.133354  -2.355490  2.275165
H    -2.566900  -3.218402  4.455937
H    -3.436279  -1.732309  4.899041
H    -1.806591  -2.060748  5.548472
N    -1.059775  1.057840  5.862259
C    -0.256096  1.399809  7.036185
H    -2.019840  1.393783  5.849454
H    -0.837641  1.191551  7.941008
H    0.003568  2.465890  7.015562
H    0.655742  0.798762  7.038292
Sr    2.011032  -0.966422  3.214640
