27
Energy: -103802.95486 eV PBE+vdW (tier 2 basis)
C    0.364658  0.839497  -0.164445
C    -0.387504  0.582658  1.098197
O    -0.719758  1.546635  1.861998
H    0.595335  -0.073365  -0.722341
H    1.300366  1.364994  0.069634
H    -0.228548  1.512078  -0.799827
N    -0.706688  -0.676554  1.409481
C    -1.600620  -1.090688  2.497157
C    -0.977716  -0.832230  3.882985
O    -1.240160  0.254633  4.490979
H    -0.595069  -1.389958  0.683694
H    -2.508084  -0.465022  2.461885
C    -2.023286  -2.579488  2.236277
O    -2.128464  -2.771642  0.834154
C    -3.277257  -2.951917  3.007529
H    -1.193455  -3.242392  2.542165
H    -3.061234  -2.815202  0.565303
H    -3.514466  -4.010891  2.851193
H    -4.137199  -2.349101  2.679853
H    -3.150616  -2.799670  4.088222
N    -0.187169  -1.747010  4.416711
C    0.459778  -1.641587  5.726344
H    -0.008975  -2.590884  3.877449
H    -0.154556  -1.026654  6.389442
H    1.458344  -1.195909  5.627191
H    0.560582  -2.646072  6.148432
Sr    -1.335237  2.450743  3.836339
