27
Energy: -103802.074544 eV PBE+vdW (tier 2 basis)
C    -0.268444  0.333597  -0.025478
C    -0.267703  0.512792  1.453102
O    0.820287  0.431310  2.116801
H    0.072195  -0.687085  -0.254466
H    0.455865  1.020787  -0.481863
H    -1.252694  0.489513  -0.478635
N    -1.417596  0.746087  2.090128
C    -1.597252  0.711128  3.547381
C    -2.929430  -0.027711  3.916140
O    -2.857199  -0.990184  4.660972
H    -2.265937  0.717905  1.526546
H    -0.846484  0.020009  3.959096
C    -1.469068  2.073486  4.250005
O    -0.007681  2.433226  4.283402
C    -2.003650  2.085390  5.669263
H    -1.945023  2.852521  3.635609
H    0.025931  3.317935  4.691875
H    -1.797636  3.049786  6.153291
H    -1.576199  1.278210  6.277669
H    -3.093872  1.961064  5.668827
N    -4.063449  0.442589  3.339010
C    -5.366016  -0.181312  3.599507
H    -4.071037  1.361981  2.907117
H    -6.042932  0.051588  2.772221
H    -5.799516  0.179972  4.541326
H    -5.230566  -1.264560  3.670072
Sr    2.000104  1.122976  3.867085
