27
Energy: -103803.62778 eV PBE+vdW (tier 2 basis)
C    -0.205917  -0.884750  -0.280420
C    -0.060820  -0.569825  1.174915
O    1.075835  -0.519097  1.708223
H    0.276841  -1.849850  -0.484547
H    0.340142  -0.128451  -0.861013
H    -1.243938  -0.921068  -0.626343
N    -1.194924  -0.339721  1.874234
C    -1.373805  0.005434  3.297893
C    -0.650393  1.312819  3.696797
O    0.570106  1.315612  4.015445
H    -2.054125  -0.406464  1.336872
H    -2.450314  0.207005  3.387222
C    -1.165269  -1.147570  4.313089
O    0.243322  -1.567253  4.379364
C    -2.042050  -2.350518  4.012278
H    -1.421603  -0.727608  5.299855
H    0.238839  -2.456969  4.773975
H    -1.909261  -3.124040  4.781734
H    -1.812298  -2.788220  3.032572
H    -3.104444  -2.074285  4.034793
N    -1.386800  2.417481  3.709294
C    -0.894789  3.750523  4.061843
H    -2.366541  2.345284  3.447738
H    -1.583689  4.209655  4.779396
H    -0.838694  4.379307  3.164327
H    0.097068  3.659814  4.509924
Sr    2.234525  -0.269246  3.684539
