23
Energy: -166136.872346 eV PBE+vdW (tier 2 basis)
N    0.129596  0.632613  0.396890
C    -0.136964  0.339569  1.835787
C    1.144257  0.517512  2.661412
O    2.283650  0.256028  2.203833
H    0.069775  1.635669  0.180986
H    -0.578905  0.148589  -0.173935
H    -0.891509  1.059844  2.195584
C    -0.680599  -1.118390  1.992112
C    -1.957886  -1.328804  1.137212
C    -0.889173  -1.503424  3.463303
C    -3.166707  -0.469279  1.505961
H    0.105433  -1.789763  1.580930
H    -2.213045  -2.394033  1.240627
H    -1.734789  -1.230367  0.056423
H    0.049564  -1.585132  4.025587
H    -1.367395  -2.488948  3.511944
H    -1.557958  -0.804107  3.985163
H    -3.490414  -0.632857  2.540709
H    -4.014857  -0.730980  0.861995
H    -2.993643  0.609533  1.369522
O    1.090957  0.892214  3.902270
H    0.185717  1.070945  4.233573
Cd    2.226422  -0.148494  0.075330
