23
Energy: -166137.057888 eV PBE+vdW (tier 2 basis)
N    0.622212  0.123510  0.359946
C    -0.061946  0.327079  1.668882
C    0.951870  0.875821  2.683960
O    2.160358  0.557151  2.648690
H    0.835835  1.012276  -0.107495
H    0.016026  -0.414938  -0.270114
H    -0.878326  1.055102  1.539601
C    -0.687780  -1.025898  2.184074
C    0.350885  -2.096390  2.596509
C    -1.735122  -1.524297  1.179204
C    -0.231975  -3.445176  3.039672
H    -1.212427  -0.758011  3.116577
H    1.002551  -1.720894  3.400817
H    1.011339  -2.395706  1.703929
H    -2.416695  -0.720854  0.870518
H    -2.354332  -2.305994  1.633128
H    -1.289434  -1.973479  0.276999
H    0.557938  -4.104808  3.415042
H    -0.763058  -3.962417  2.234299
H    -0.936637  -3.266953  3.866800
O    0.562275  1.635251  3.666227
H    -0.377462  1.909903  3.626225
Cd    2.477644  -0.958131  1.088300
