23
Energy: -166137.114096 eV PBE+vdW (tier 2 basis)
N    0.357517  0.240300  1.028998
C    -0.407862  -0.173872  2.240149
C    0.522784  -0.258842  3.460112
O    1.745293  -0.498480  3.377420
H    0.478215  1.259207  0.990064
H    -0.153187  -0.024392  0.179841
H    -1.152349  0.607821  2.461663
C    -1.177773  -1.535924  2.024470
C    -0.519783  -2.574865  1.079547
C    -2.598909  -1.226282  1.521955
C    0.879401  -3.135658  1.377397
H    -1.259432  -2.002555  3.019317
H    -0.579434  -2.241377  0.031627
H    -1.199835  -3.439701  1.107906
H    -2.589201  -0.719155  0.545277
H    -3.150091  -0.592809  2.228097
H    -3.171775  -2.153383  1.400220
H    0.983436  -4.185389  1.057661
H    1.186179  -3.112966  2.432753
H    1.695184  -2.721394  0.685341
O    0.026233  -0.130344  4.657429
H    -0.924133  0.105591  4.684850
Cd    2.327938  -0.866710  1.309433
