23
Energy: -166137.404417 eV PBE+vdW (tier 2 basis)
N    -0.794027  0.576165  -0.047369
C    -0.067841  0.142433  1.216081
C    1.382447  -0.234981  0.874134
O    2.153544  -0.519516  1.841696
H    -0.964304  -0.244140  -0.657445
H    -0.277932  1.284807  -0.587307
H    -0.009400  1.031478  1.862102
C    -0.829587  -0.989792  1.948036
C    -0.751633  -2.373122  1.258537
C    -2.268049  -0.538677  2.257741
C    -1.297554  -2.492889  -0.170110
H    -0.292828  -1.077238  2.905827
H    -1.304334  -3.066508  1.907265
H    0.290190  -2.731555  1.287213
H    -2.300539  0.443390  2.749961
H    -2.721423  -1.259056  2.950291
H    -2.924989  -0.517262  1.375375
H    -0.638555  -2.037331  -0.932875
H    -2.317222  -2.095996  -0.278265
H    -1.357665  -3.548471  -0.463535
O    1.760977  -0.238472  -0.340726
H    -1.713662  0.965715  0.209720
Cd    3.813386  -0.846979  0.408655
