23
Energy: -166137.366746 eV PBE+vdW (tier 2 basis)
N    0.000363  0.477718  0.632470
C    0.189352  -0.455033  1.816957
C    1.591326  -1.076952  1.711611
O    2.129328  -1.532509  2.767895
H    -1.005564  0.707494  0.556632
H    0.295123  0.021092  -0.245090
H    0.154491  0.162715  2.724369
C    -0.940816  -1.522362  1.847213
C    -2.337427  -0.827490  1.763205
C    -0.821696  -2.414965  3.086067
C    -2.674393  0.186643  2.854918
H    -0.833650  -2.147710  0.944128
H    -3.063652  -1.653021  1.786233
H    -2.491729  -0.389329  0.758028
H    0.081378  -3.037620  3.072376
H    -1.676596  -3.101545  3.116818
H    -0.822080  -1.837705  4.018935
H    -2.607856  -0.247940  3.859374
H    -3.706465  0.535808  2.725743
H    -2.041298  1.088543  2.839195
O    2.152034  -1.130698  0.569877
H    0.529530  1.356549  0.722044
Cd    3.877298  -2.212685  1.582000
