23
Energy: -166137.387845 eV PBE+vdW (tier 2 basis)
N    -0.539161  0.486009  0.004098
C    -0.224584  0.081334  1.435826
C    1.301051  -0.000669  1.614900
O    1.742193  -0.412871  2.730876
H    -1.516930  0.807499  -0.059467
H    -0.442067  -0.323747  -0.628613
H    -0.527345  0.931613  2.068470
C    -1.030164  -1.172312  1.851072
C    -0.850584  -2.385921  0.914477
C    -2.513256  -0.794534  2.007568
C    0.572076  -2.914593  0.731023
H    -0.628570  -1.432158  2.843433
H    -1.317103  -2.183180  -0.068076
H    -1.477114  -3.185034  1.334698
H    -2.660089  0.049660  2.693910
H    -3.061031  -1.650943  2.420752
H    -3.002187  -0.561322  1.048215
H    1.228875  -2.223974  0.176276
H    0.556949  -3.842567  0.146262
H    1.042869  -3.148286  1.695819
O    2.059762  0.413700  0.678409
H    0.080257  1.234694  -0.339113
Cd    3.812905  -0.031143  2.038799
