23
Energy: -166137.387077 eV PBE+vdW (tier 2 basis)
N    -0.242563  0.418000  0.206622
C    0.046240  0.032101  1.650527
C    1.566242  -0.142148  1.813912
O    2.313490  0.018478  0.796531
H    -1.202259  0.785593  0.123868
H    0.411613  1.129333  -0.152961
H    -0.241897  0.895186  2.270368
C    -0.782108  -1.211871  2.052146
C    -0.874680  -1.374057  3.578964
C    -0.314128  -2.488677  1.344032
C    -1.426053  -0.175629  4.347038
H    -1.806472  -0.970170  1.702308
H    0.113965  -1.661704  3.978642
H    -1.513040  -2.254227  3.751997
H    0.670771  -2.814367  1.708882
H    -0.263239  -2.407196  0.246226
H    -1.017137  -3.304325  1.549875
H    -0.748284  0.691368  4.347874
H    -1.577924  -0.441356  5.399685
H    -2.402142  0.147580  3.956354
O    2.016741  -0.424136  2.966910
H    -0.169985  -0.406412  -0.410839
Cd    4.088196  -0.416866  2.150582
