23
Energy: -166136.349178 eV PBE+vdW (tier 2 basis)
N    -0.833944  0.837052  0.242253
C    -0.922572  0.534765  1.599590
C    0.408781  1.067966  2.338253
O    0.274392  2.000645  3.133748
H    -0.272741  0.289008  -0.405688
H    -1.377325  1.593982  -0.164609
H    -1.730531  1.111558  2.064317
C    -1.058816  -0.990808  1.971907
C    -2.425078  -1.439072  1.369875
C    -0.948701  -1.220668  3.475023
C    -2.660455  -2.937756  1.526981
H    -0.251907  -1.536346  1.444023
H    -2.423214  -1.153566  0.305106
H    -3.242988  -0.875809  1.845976
H    0.027678  -0.929140  3.890923
H    -1.050823  -2.288725  3.700316
H    -1.738773  -0.689712  4.023173
H    -1.832762  -3.538132  1.128652
H    -3.567127  -3.191360  0.949852
H    -2.863335  -3.246026  2.559552
O    1.587303  0.571408  2.078433
H    1.582249  -0.211050  1.487840
Cd    1.951613  3.038025  4.285338
