27
Energy: -608230.445443 eV PBE+vdW (tier 2 basis)
C    0.246159  0.233926  0.035163
C    0.032228  0.169983  1.515054
O    0.828072  0.592966  2.351055
H    1.081013  -0.434361  -0.220956
H    0.556492  1.248238  -0.243048
H    -0.630355  -0.062511  -0.551375
N    -1.151366  -0.444078  1.957048
C    -1.365146  -0.427105  3.387691
C    -2.305245  -1.524147  3.872296
O    -2.892085  -1.434813  5.012971
H    -1.956263  -0.401488  1.333781
H    -0.376862  -0.694778  3.806961
C    -1.720575  0.988054  3.952691
C    -0.930869  1.281620  5.202468
O    -1.427940  1.083710  6.374347
N    0.305658  1.705105  5.071636
H    -2.793051  1.095976  4.154955
H    -1.461447  1.725731  3.186053
H    0.732311  1.741659  4.138953
H    0.885849  1.883207  5.890471
N    -2.452200  -2.593524  3.119821
C    -3.229966  -3.789734  3.445567
H    -1.920217  -2.591447  2.247406
H    -2.551444  -4.612499  3.705710
H    -3.819889  -4.078159  2.568700
H    -3.895172  -3.578995  4.285334
Pb    -3.024692  -0.350535  6.973243
