27
Energy: -608230.480605 eV PBE+vdW (tier 2 basis)
C    0.778838  0.407502  0.173252
C    -0.279681  0.323384  1.228742
O    -0.605825  -0.743860  1.772855
H    0.457224  -0.194388  -0.688180
H    1.697885  -0.055384  0.554313
H    0.993505  1.426779  -0.164708
N    -0.895322  1.498923  1.592585
C    -2.073456  1.592662  2.452968
C    -1.813630  1.225320  3.931555
O    -2.254812  2.016169  4.864569
H    -0.565349  2.362665  1.174042
H    -2.330846  2.659867  2.465245
C    -3.265136  0.808702  1.841803
C    -4.638231  1.078091  2.415884
O    -4.884725  1.986887  3.281705
N    -5.643229  0.353590  1.955134
H    -3.061626  -0.271676  1.875171
H    -3.308116  1.070536  0.772020
H    -5.510631  -0.366650  1.249605
H    -6.593674  0.531679  2.275108
N    -1.154076  0.135482  4.209910
C    -0.791714  -0.340224  5.542055
H    -0.872015  -0.418587  3.352007
H    0.281513  -0.563935  5.552353
H    -1.338838  -1.266479  5.760615
H    -1.019991  0.417123  6.295260
Pb    -4.133042  3.130822  5.069130
