27
Energy: -608230.302141 eV PBE+vdW (tier 2 basis)
C    -2.404657  -1.381903  -0.625111
C    -1.859612  -1.681646  0.728816
O    -1.812019  -2.910193  1.107253
H    -3.438643  -1.753057  -0.676226
H    -1.830718  -1.936173  -1.380217
H    -2.392955  -0.314715  -0.867710
N    -1.457884  -0.671256  1.493582
C    -1.088746  -0.637242  2.925483
C    0.207153  -1.391568  3.241816
O    0.271324  -2.670454  3.314220
H    -1.696012  0.258530  1.145481
H    -0.890057  0.428773  3.096474
C    -2.264719  -0.985666  3.853234
C    -3.324532  0.138341  3.694814
O    -3.164784  1.005671  2.837357
N    -4.382307  0.077422  4.522312
H    -1.914855  -1.045616  4.894656
H    -2.727448  -1.953039  3.605167
H    -4.466116  -0.600692  5.269911
H    -5.088646  0.805865  4.461280
N    1.274019  -0.661851  3.502114
C    2.598875  -1.169974  3.866640
H    1.174091  0.350250  3.442973
H    2.524302  -2.223268  4.144514
H    2.977983  -0.586453  4.712866
H    3.284865  -1.054817  3.017413
Pb    -0.893900  -4.374269  2.466889
