27
Energy: -608230.626446 eV PBE+vdW (tier 2 basis)
C    0.545870  0.621353  1.290408
C    -0.314940  0.864683  2.473976
O    -0.024421  1.746800  3.336438
H    1.513604  0.248264  1.666482
H    0.762447  1.561329  0.767589
H    0.142013  -0.129368  0.604124
N    -1.443268  0.123320  2.688611
C    -2.518299  -0.041169  1.707976
C    -2.699479  1.253786  0.883563
O    -2.419970  2.392222  1.378493
H    -1.783051  0.232892  3.643275
H    -2.294820  -0.872453  1.024764
C    -3.816929  -0.407791  2.462382
C    -4.313149  0.590004  3.514459
O    -3.589612  1.499141  4.019437
N    -5.557390  0.422504  3.941759
H    -3.648809  -1.368397  2.977656
H    -4.619603  -0.596233  1.737154
H    -6.161172  -0.317632  3.595335
H    -5.915740  1.008629  4.693789
N    -3.147704  1.172268  -0.360236
C    -3.480297  -0.026593  -1.140987
H    -3.263366  2.073930  -0.824940
H    -3.654017  0.285256  -2.174436
H    -4.394181  -0.508112  -0.771699
H    -2.651871  -0.745168  -1.139556
Pb    -1.930845  3.135538  3.543185
