27
Energy: -608230.421699 eV PBE+vdW (tier 2 basis)
C    0.414180  -0.713581  0.233061
C    -0.181220  0.200751  1.258042
O    0.461034  1.080915  1.844424
H    0.731087  -0.106147  -0.626469
H    -0.270820  -1.492929  -0.118017
H    1.319725  -1.174684  0.645715
N    -1.525025  0.040443  1.542307
C    -2.215383  1.007892  2.382999
C    -1.949194  0.735488  3.885706
O    -2.869692  0.335103  4.705844
H    -2.030542  -0.753073  1.160075
H    -1.733833  1.978945  2.175418
C    -3.704567  1.079966  1.976654
C    -4.442188  2.292747  2.502342
O    -4.951169  2.326711  3.674834
N    -4.569990  3.352238  1.724521
H    -4.245825  0.179561  2.302928
H    -3.734956  1.087382  0.879332
H    -4.218191  3.371100  0.771279
H    -5.065035  4.177292  2.061915
N    -0.707841  0.897534  4.261926
C    -0.156281  0.649666  5.589888
H    -0.059723  1.148849  3.468731
H    0.128105  1.603650  6.052888
H    0.745834  0.035949  5.484937
H    -0.884237  0.129954  6.217068
Pb    -4.855256  0.916277  5.434654
