27
Energy: -608230.468149 eV PBE+vdW (tier 2 basis)
C    0.474924  0.075496  0.132650
C    -0.663963  0.305509  1.080220
O    -1.598103  -0.487868  1.217387
H    0.780368  -0.975682  0.188066
H    1.340004  0.724083  0.309904
H    0.113358  0.247895  -0.892087
N    -0.621917  1.476630  1.819319
C    -1.701425  1.982426  2.651305
C    -1.702023  1.429137  4.083591
O    -2.580026  1.854506  4.921187
H    0.112764  2.140012  1.588939
H    -1.471083  3.049521  2.794263
C    -3.131647  1.949383  1.988939
C    -4.147272  0.960463  2.528927
O    -5.081066  1.368921  3.326707
N    -4.099264  -0.290009  2.151637
H    -2.993927  1.773166  0.915847
H    -3.588265  2.941296  2.081810
H    -3.271046  -0.596373  1.605212
H    -4.804729  -0.954980  2.465264
N    -0.754182  0.596999  4.442145
C    -0.544080  0.029652  5.773836
H    -0.093906  0.347794  3.704353
H    -0.758852  -1.046177  5.755326
H    -1.196295  0.528894  6.493358
H    0.502664  0.178400  6.062451
Pb    -4.726009  2.424907  5.232445
