27
Energy: -608230.746269 eV PBE+vdW (tier 2 basis)
C    -0.521911  -0.783725  0.420741
C    -0.087944  -0.459568  1.807461
O    1.126436  -0.099344  2.014835
H    0.121704  -1.572877  0.009251
H    -0.373153  0.106049  -0.208623
H    -1.569966  -1.094246  0.360819
N    -0.973723  -0.522993  2.802139
C    -0.698672  -0.159780  4.197620
C    0.116917  -1.288446  4.874368
O    1.403134  -1.155548  4.942137
H    -1.889998  -0.931189  2.610949
H    -0.019250  0.703808  4.172999
C    -1.969591  0.329150  4.922833
C    -3.169945  -0.615588  4.817109
O    -3.002929  -1.806383  4.485878
N    -4.372371  -0.102280  5.088775
H    -2.227130  1.321834  4.526780
H    -1.730535  0.476945  5.987169
H    -4.515144  0.866074  5.354058
H    -5.184060  -0.715418  5.072546
N    -0.505242  -2.340668  5.329753
C    0.114406  -3.501659  5.964561
H    -1.538641  -2.341087  5.128672
H    0.031761  -4.370388  5.298466
H    -0.425916  -3.723437  6.892078
H    1.164265  -3.297814  6.186615
Pb    2.811503  -0.239425  3.484013
