27
Energy: -608230.683734 eV PBE+vdW (tier 2 basis)
C    -0.002865  -0.066105  -0.362672
C    -0.708788  0.368474  0.883431
O    -1.184995  1.455878  1.095928
H    1.084995  -0.040964  -0.186202
H    -0.231895  0.632545  -1.172731
H    -0.257362  -1.091200  -0.666459
N    -0.844544  -0.688554  1.904425
C    -0.728013  -0.329777  3.352087
C    -1.160489  -1.563437  4.166161
O    -2.128732  -2.287491  3.768900
H    -0.193671  -1.452815  1.695217
H    0.332596  -0.130996  3.572871
C    -1.496509  0.941784  3.807202
C    -2.900762  1.179127  3.284390
O    -3.633365  0.273438  2.772496
N    -3.396830  2.394310  3.433412
H    -0.890267  1.822829  3.569489
H    -1.565144  0.902186  4.907214
H    -2.857123  3.160404  3.824970
H    -4.345826  2.593963  3.122719
N    -0.514314  -1.821633  5.288046
C    -0.834245  -2.907213  6.222450
H    0.279383  -1.229847  5.527000
H    -1.717087  -3.442088  5.866605
H    -1.028111  -2.483996  7.215022
H    0.017647  -3.594864  6.284550
Pb    -3.235647  -1.745656  1.844635
