27
Energy: -608230.21221 eV PBE+vdW (tier 2 basis)
C    0.440640  -1.353835  0.522647
C    -0.022380  -0.517387  1.681031
O    0.510455  -0.512020  2.787403
H    1.535273  -1.335457  0.478047
H    0.025043  -1.045532  -0.443336
H    0.148717  -2.397031  0.713797
N    -1.121937  0.307759  1.446156
C    -1.837626  0.899480  2.580421
C    -3.126853  1.519509  2.051916
O    -3.195921  2.747502  1.673282
H    -1.624096  0.185775  0.571232
H    -2.114130  0.101193  3.288195
C    -0.994512  1.895651  3.435449
C    0.052092  2.688347  2.690554
O    -0.222023  3.796133  2.092679
N    1.288377  2.248885  2.692864
H    -0.496533  1.305801  4.210659
H    -1.662158  2.604026  3.946325
H    1.492469  1.321822  3.079505
H    2.028229  2.771606  2.226206
N    -4.217553  0.781308  1.967461
C    -4.409291  -0.626247  2.342144
H    -5.040339  1.274577  1.614800
H    -3.502085  -1.209791  2.162408
H    -5.213279  -1.034033  1.721501
H    -4.704566  -0.703298  3.396839
Pb    -2.125361  4.695636  1.406903
