27
Energy: -608230.238559 eV PBE+vdW (tier 2 basis)
C    -0.278757  0.918077  -0.460292
C    -0.095065  0.815829  1.013177
O    0.950944  1.322479  1.560170
H    -0.284312  1.976565  -0.755630
H    -1.200488  0.441640  -0.810417
H    0.582337  0.452621  -0.960852
N    -1.006639  0.188651  1.755362
C    -0.894204  0.047846  3.205678
C    -1.813123  -1.053502  3.833240
O    -2.469741  -0.749300  4.828427
H    -1.836768  -0.171449  1.287915
H    0.146748  -0.254027  3.410374
C    -1.209565  1.397437  3.907008
C    -0.300943  1.595002  5.086488
O    0.881533  2.080443  4.919543
N    -0.707400  1.227604  6.278599
H    -2.261454  1.393670  4.213644
H    -1.048763  2.234231  3.216945
H    -1.611089  0.757268  6.371652
H    -0.108365  1.327289  7.097102
N    -1.811151  -2.286473  3.290577
C    -0.966305  -2.851609  2.240297
H    -2.444114  -2.927774  3.767341
H    0.014532  -2.363225  2.210313
H    -1.437580  -2.790437  1.249246
H    -0.795448  -3.909471  2.465476
Pb    2.174176  2.388615  3.110619
