27
Energy: -608230.747096 eV PBE+vdW (tier 2 basis)
C    -3.336132  -4.196418  -0.146216
C    -2.474919  -3.226226  0.585631
O    -1.339260  -2.907941  0.127064
H    -3.497241  -3.827466  -1.168486
H    -4.303943  -4.364531  0.337869
H    -2.801653  -5.152339  -0.236110
N    -2.942112  -2.688789  1.748964
C    -2.099507  -1.725476  2.423559
C    -1.061832  -2.373001  3.358960
O    0.137716  -2.458532  2.936125
H    -3.854611  -2.973442  2.094188
H    -1.494320  -1.410037  1.577887
C    -2.627622  -0.353876  2.835159
C    -1.548831  0.684420  2.420896
O    -0.571981  0.385056  1.678339
N    -1.708807  1.923648  2.861788
H    -2.856315  -0.247683  3.903512
H    -3.547578  -0.119139  2.277743
H    -2.497214  2.196376  3.440931
H    -1.049939  2.649265  2.586283
N    -1.421969  -2.830975  4.543846
C    -0.534808  -3.502723  5.501113
H    -2.397561  -2.729152  4.815142
H    0.482065  -3.509100  5.103331
H    -0.878857  -4.532050  5.658266
H    -0.557808  -2.964778  6.455846
Pb    0.601040  -1.630090  0.817368
