27
Energy: -608229.712133 eV PBE+vdW (tier 2 basis)
C    0.756143  0.593841  0.827865
C    -0.025203  -0.473676  1.556036
O    0.334744  -1.622416  1.680840
H    1.686996  0.141940  0.474517
H    1.010112  1.445402  1.474634
H    0.209122  0.975508  -0.046835
N    -1.264125  -0.110210  2.139463
C    -1.970471  1.143779  2.037178
C    -2.530487  1.458025  3.428508
O    -3.779566  1.290057  3.717387
H    -1.755566  -0.914538  2.529193
H    -1.234818  1.923457  1.791018
C    -3.038259  1.096674  0.892057
C    -3.761337  2.384886  0.588920
O    -4.797172  2.756691  1.246249
N    -3.316092  3.168839  -0.377647
H    -3.783071  0.320519  1.118048
H    -2.499182  0.752394  0.000327
H    -2.540288  2.900773  -0.976426
H    -3.799536  4.040202  -0.593484
N    -1.709855  1.813545  4.398655
C    -0.253214  1.974888  4.344208
H    -2.146952  1.905145  5.316750
H    0.237735  0.997881  4.253059
H    0.066957  2.455028  5.272611
H    0.037376  2.618102  3.505668
Pb    -5.806007  1.901749  3.062311
