17
Energy: -567341.287021 eV PBE+vdW (tier 2 basis)
N    0.217284  -0.982161  -0.055254
C    -0.174961  -0.324160  1.111729
C    1.011852  0.165099  2.034124
O    0.778728  0.430318  3.192010
H    0.072874  -0.572670  -0.976774
H    0.756085  -1.847540  -0.025963
H    -0.710020  0.594601  0.823217
C    -1.076964  -1.265982  1.993743
C    -1.660316  -0.634992  3.262300
O    -1.617038  -1.350710  4.278609
O    -2.305757  0.502526  3.293097
H    -0.506465  -2.148201  2.305221
H    -1.935971  -1.614022  1.395063
O    2.150750  0.251406  1.380181
H    2.867472  0.598550  1.959114
H    -2.346096  0.986237  2.444537
Hg    -2.269457  -0.599302  6.381046
