17
Energy: -567341.269886 eV PBE+vdW (tier 2 basis)
N    -0.364841  0.275551  0.223009
C    0.022849  -0.251583  1.593311
C    1.561245  -0.236364  1.707636
O    1.996514  -0.004018  2.874815
H    0.224374  -0.163530  -0.507618
H    -1.356660  0.090935  0.002516
H    -0.433157  0.401751  2.344913
C    -0.428442  -1.727815  1.745339
C    0.324832  -2.625690  2.769550
O    1.544086  -2.760396  2.829791
O    -0.410688  -3.377382  3.561775
H    -0.287114  -2.253046  0.785505
H    -1.502394  -1.727454  1.976650
O    2.198391  -0.672209  0.723463
H    -0.224749  1.297536  0.159226
H    -1.375880  -3.262156  3.462712
Hg    3.734634  -1.415132  2.501407
