17
Energy: -567341.396304 eV PBE+vdW (tier 2 basis)
N    0.672683  -0.631700  -0.390081
C    0.007788  -0.203625  0.853272
C    1.078404  0.247914  1.923382
O    0.794305  0.264360  3.090556
H    1.290449  0.099598  -0.767608
H    1.232150  -1.488201  -0.280174
H    -0.545223  0.724145  0.632489
C    -0.936647  -1.248745  1.480070
C    -2.293868  -1.417857  0.824263
O    -2.534830  -1.231393  -0.394731
O    -3.313842  -1.808485  1.532527
H    -1.074885  -0.948684  2.530328
H    -0.462858  -2.245748  1.524092
O    2.211741  0.618565  1.340974
H    2.858131  0.957852  2.002338
H    -3.150409  -1.878945  2.496406
Hg    -0.934089  -1.112052  -2.006103
