17
Energy: -567341.228663 eV PBE+vdW (tier 2 basis)
N    0.146261  -0.094618  0.385457
C    0.455438  -0.350218  1.849300
C    2.028439  -0.402693  1.853946
O    2.734900  -0.404904  2.958319
H    1.081021  -0.247475  -0.096682
H    -0.560124  -0.719277  -0.024942
H    0.103637  0.526987  2.408869
C    -0.234424  -1.651922  2.367837
C    -0.903019  -1.557376  3.742520
O    -0.407978  -0.994089  4.744590
O    -2.062227  -2.120319  3.941637
H    0.491186  -2.481298  2.430563
H    -0.986464  -1.986446  1.640221
O    2.599441  -0.441989  0.776443
H    -0.148225  0.876532  0.207339
H    -2.471677  -2.540048  3.158030
Hg    1.763815  -0.412847  4.834552
