17
Energy: -567342.053345 eV PBE+vdW (tier 2 basis)
N    0.531846  -0.443120  0.471779
C    0.406440  -0.343101  1.971624
C    0.860593  1.102872  2.357136
O    1.380158  1.811978  1.527695
H    0.588251  -1.443888  0.193226
H    -0.274859  -0.012102  -0.003271
H    -0.655486  -0.453953  2.230729
C    1.265735  -1.370246  2.706448
C    0.962198  -2.853665  2.306831
O    1.111291  -3.663556  3.284599
O    0.663081  -3.152323  1.140675
H    1.125182  -1.255439  3.786594
H    2.341854  -1.248996  2.494661
O    0.593918  1.353888  3.624627
H    0.872576  2.265767  3.866696
H    1.368067  0.082444  0.157057
Hg    0.724154  -5.577558  2.272891
