17
Energy: -567340.666719 eV PBE+vdW (tier 2 basis)
N    0.512757  0.568803  0.930514
C    0.137265  -0.309147  1.876192
C    1.389649  -1.168254  2.365522
O    2.500290  -0.817524  2.091487
H    -0.144200  1.043332  0.309684
H    1.508913  0.805099  0.844157
H    0.071353  0.357057  3.045312
C    -1.215203  -0.991912  1.693742
C    -2.038526  -1.488703  2.896575
O    -2.041068  -0.995061  4.030972
O    -2.863484  -2.481573  2.687115
H    -1.001506  -1.875178  1.066517
H    -1.887529  -0.346914  1.102927
O    0.954773  -2.214521  3.055517
H    1.710121  -2.782190  3.332173
H    -2.855373  -2.852102  1.780794
Hg    -0.641064  0.803582  4.707733
