17
Energy: -567341.216804 eV PBE+vdW (tier 2 basis)
N    0.568293  -0.201186  -0.031882
C    0.032713  0.106608  1.217810
C    1.195487  0.276297  2.238930
O    2.303981  -0.128580  2.066449
H    0.097226  0.054935  -0.898258
H    1.465233  -0.689302  -0.098221
H    -0.606886  0.999011  1.165412
C    -0.895716  -1.146949  1.686357
C    -1.815903  -0.931343  2.888329
O    -2.788894  -1.719003  2.883218
O    -1.635380  -0.070365  3.830724
H    -0.262931  -2.023435  1.903500
H    -1.534816  -1.408993  0.835353
O    0.743421  0.931136  3.350423
H    1.484909  1.068535  3.983291
H    -0.762989  0.439467  3.755105
Hg    -4.426347  -1.668760  4.496125
