17
Energy: -567341.9358 eV PBE+vdW (tier 2 basis)
N    0.085863  0.551356  0.727817
C    -1.189920  -0.084833  1.255662
C    -0.944886  -0.560159  2.714555
O    -1.279171  -1.648877  3.102977
H    0.483429  1.181226  1.445028
H    0.782191  -0.187702  0.516270
H    -1.944564  0.716929  1.302540
C    -1.721450  -1.189610  0.355151
C    -0.816878  -2.448806  0.342592
O    0.426629  -2.320697  0.368970
O    -1.445092  -3.557631  0.267433
H    -1.811551  -0.866405  -0.694376
H    -2.720046  -1.484764  0.695723
O    -0.341331  0.414533  3.404094
H    -0.215277  0.152776  4.342509
H    -0.076161  1.101353  -0.129009
Hg    0.323212  -4.864688  0.221064
