17
Energy: -567341.938279 eV PBE+vdW (tier 2 basis)
N    0.274021  -1.416115  0.458305
C    -0.086793  -0.195496  1.268498
C    1.194429  0.692579  1.432758
O    1.148395  1.587037  2.322590
H    0.921241  -1.196587  -0.313275
H    -0.565199  -1.871848  0.071419
H    -0.765413  0.440695  0.678815
C    -0.736422  -0.601368  2.590703
C    0.070548  -1.638304  3.369637
O    -0.258995  -1.688858  4.638850
O    0.912234  -2.349585  2.819302
H    -1.723476  -1.054342  2.389894
H    -0.919447  0.286320  3.209782
O    2.145867  0.491866  0.637829
H    0.734193  -2.079917  1.157882
H    0.221376  -2.412336  5.100841
Hg    3.224440  2.374258  1.677168
