17
Energy: -567341.568811 eV PBE+vdW (tier 2 basis)
N    -0.134539  2.221562  1.637644
C    0.377064  0.816511  1.898982
C    1.805480  0.842685  1.237833
O    2.644247  -0.165291  1.314889
H    -0.998549  2.259339  1.079976
H    0.649885  2.671735  1.079595
H    0.495618  0.723188  2.987645
C    -0.603381  -0.264989  1.345226
C    -0.928054  -1.420235  2.285465
O    -2.203470  -1.537831  2.523665
O    -0.108857  -2.228385  2.786401
H    -0.215737  -0.704292  0.411074
H    -1.565701  0.191705  1.081848
O    2.143552  1.854558  0.647682
H    -0.286881  2.764385  2.499134
H    -2.412557  -2.323238  3.083317
Hg    2.066880  -1.946406  2.276625
