17
Energy: -567341.731159 eV PBE+vdW (tier 2 basis)
N    -0.119846  0.399186  0.201135
C    0.209586  -0.089092  1.600153
C    1.727610  -0.505398  1.650626
O    2.181736  -0.785135  2.791694
H    0.394463  1.259014  -0.041810
H    -1.140082  0.597358  0.170497
H    0.111644  0.778529  2.268709
C    -0.689025  -1.240965  2.040441
C    -2.175877  -0.888182  2.224311
O    -2.576945  0.140733  1.441395
O    -2.882843  -1.505738  2.973044
H    -0.330721  -1.620954  3.005780
H    -0.651809  -2.087484  1.334255
O    2.350544  -0.508863  0.566138
H    0.111171  -0.305162  -0.516623
H    -3.536279  0.312002  1.575741
Hg    4.288674  -1.244849  1.933515
