17
Energy: -567341.112445 eV PBE+vdW (tier 2 basis)
N    0.161913  -0.123759  0.228294
C    -0.073915  -0.011976  1.608666
C    1.234329  -0.076572  2.487700
O    1.286523  0.262357  3.673093
H    0.344593  -1.027588  -0.202444
H    0.486596  0.683802  -0.298932
H    -0.455780  1.006461  1.813095
C    -1.085444  -1.089793  2.135188
C    -2.402246  -0.503990  2.636990
O    -2.479751  0.364883  3.533572
O    -3.541324  -0.915080  2.152608
H    -0.672134  -1.667202  2.977863
H    -1.272428  -1.815081  1.333487
O    2.262470  -0.524517  1.824212
H    3.083790  -0.554307  2.370659
H    -3.467155  -1.585853  1.443685
Hg    -0.683037  1.073216  4.760267
