17
Energy: -567341.966619 eV PBE+vdW (tier 2 basis)
N    0.088456  0.130578  0.098945
C    0.103562  -0.135952  1.568339
C    1.576801  -0.152060  2.135606
O    1.662039  0.042405  3.384847
H    0.796279  -0.415767  -0.413381
H    0.214743  1.123367  -0.137975
H    -0.413013  0.697444  2.062292
C    -0.597816  -1.467269  1.868135
C    -1.964916  -1.556374  1.167647
O    -2.804731  -2.319169  1.820612
O    -2.196987  -0.991277  0.096668
H    -0.732814  -1.593207  2.948780
H    -0.011447  -2.328295  1.505441
O    2.518536  -0.361697  1.348982
H    -0.921556  -0.215312  -0.198376
H    -3.654337  -2.410676  1.331580
Hg    3.929203  -0.163740  3.376861
