17
Energy: -567341.236217 eV PBE+vdW (tier 2 basis)
N    -1.663096  0.685726  1.843954
C    -0.800411  -0.483422  2.238436
C    0.593815  -0.433706  1.595977
O    1.523775  -1.043305  2.032004
H    -2.575533  0.669391  2.320318
H    -1.213015  1.580726  2.076421
H    -0.623107  -0.403634  3.325364
C    -1.471715  -1.866014  2.021292
C    -1.666118  -2.403260  0.610665
O    -1.773865  -1.718246  -0.440933
O    -1.776088  -3.686115  0.428578
H    -2.464230  -1.879134  2.506346
H    -0.864333  -2.588173  2.587751
O    0.634219  0.351680  0.465985
H    1.544665  0.342417  0.088854
H    -1.646424  -4.238800  1.227839
Hg    -1.804538  0.510868  -0.414853
