17
Energy: -567341.032167 eV PBE+vdW (tier 2 basis)
N    0.065667  -0.214302  0.412120
C    0.410315  -0.412947  1.809843
C    1.985750  -0.349636  1.836647
O    2.736118  -0.414532  2.856046
H    1.665878  -0.130529  0.069461
H    -0.360911  -1.005766  -0.070332
H    0.072379  0.461008  2.392755
C    -0.164979  -1.739549  2.428622
C    -0.899177  -1.592248  3.757979
O    -0.382411  -1.135089  4.815618
O    -2.135982  -1.965841  3.890194
H    0.627188  -2.490474  2.592113
H    -0.842185  -2.194626  1.695298
O    2.515465  -0.187259  0.692656
H    -0.445688  0.644889  0.205346
H    -2.554010  -2.327496  3.081627
Hg    1.747581  -0.609605  4.778008
