17
Energy: -567341.958989 eV PBE+vdW (tier 2 basis)
N    1.776177  0.764826  0.418038
C    1.022844  -0.311074  1.169745
C    0.516080  0.432206  2.433822
O    0.626223  1.636336  2.514574
H    2.799980  0.684834  0.497398
H    1.533123  0.811878  -0.580256
H    0.147900  -0.588090  0.564059
C    1.898757  -1.543979  1.436833
C    1.089942  -2.780952  1.885228
O    1.678212  -3.555582  2.703360
O    -0.047440  -2.987607  1.388469
H    2.682060  -1.352519  2.180533
H    2.383504  -1.885634  0.506576
O    -0.020425  -0.393964  3.321037
H    -0.353388  0.119475  4.090255
H    1.487475  1.657558  0.910252
Hg    -0.054022  -5.020711  2.613075
