24
Energy: -18614.0103342 eV PBE+vdW (tier 2 basis)
C    -0.584296  1.737778  1.718586
C    0.148953  0.435764  1.404087
O    1.381775  0.372278  1.497749
H    0.169758  2.498926  1.939842
H    -1.200180  2.079906  0.873148
H    -1.242311  1.604704  2.587675
N    -0.601611  -0.617815  1.001568
C    -2.044029  -0.709072  0.878273
C    -2.681945  -1.061398  2.261547
O    -2.103381  -0.737509  3.301896
H    -0.156668  -1.537660  0.820181
H    -2.452065  0.292371  0.653281
C    -2.351694  -1.632991  -0.317192
C    -1.913229  -3.119824  -0.088194
O    -2.790593  -4.000062  -0.290346
O    -0.711838  -3.271087  0.279455
H    -1.774010  -1.239411  -1.167940
H    -3.408280  -1.583354  -0.598357
N    -3.928114  -1.623399  2.348816
C    -4.841995  -2.192289  1.361408
H    -4.189800  -1.730778  3.323539
H    -5.668011  -2.655635  1.915253
H    -5.275418  -1.416253  0.710413
H    -4.356745  -2.964727  0.740510
