24
Energy: -18614.5186356 eV PBE+vdW (tier 2 basis)
C    0.404058  -0.257877  0.537984
C    0.618066  0.401562  1.886158
O    1.730325  0.411944  2.429497
H    1.340761  -0.746633  0.254447
H    0.135306  0.483836  -0.225595
H    -0.402249  -0.999192  0.597849
N    -0.443611  1.022863  2.484483
C    -1.864826  1.059504  2.144156
C    -2.549181  -0.330796  2.309076
O    -1.916627  -1.379697  2.499894
H    -0.197509  1.359791  3.409491
H    -2.318718  1.706760  2.909759
C    -2.179511  1.736836  0.784566
C    -3.506763  2.569665  0.711294
O    -4.458588  2.221209  1.494927
O    -3.515815  3.493310  -0.124247
H    -2.225809  0.989969  -0.023147
H    -1.360791  2.424034  0.537077
N    -3.888546  -0.242238  2.218336
C    -4.724448  -1.418383  2.255569
H    -4.270112  0.730365  1.967275
H    -4.645041  -1.945058  3.220324
H    -4.452744  -2.142939  1.470051
H    -5.766627  -1.110835  2.106774
