24
Energy: -18614.3356703 eV PBE+vdW (tier 2 basis)
C    1.106063  -0.150959  -0.063559
C    0.532699  0.212342  1.299145
O    0.747548  1.331773  1.804063
H    0.723468  -1.107174  -0.440285
H    0.867941  0.648997  -0.776153
H    2.200457  -0.209816  0.015593
N    -0.177040  -0.762875  1.888781
C    -0.892572  -0.539159  3.132819
C    0.070564  -0.180508  4.277014
O    0.988826  -0.922248  4.625257
H    -0.625689  -1.587182  1.371875
H    -1.615366  0.281494  2.990902
C    -1.665889  -1.824605  3.499377
C    -2.479204  -2.475489  2.328962
O    -1.850910  -2.596454  1.217165
O    -3.638063  -2.853867  2.589324
H    -2.352535  -1.609314  4.326985
H    -0.933380  -2.568191  3.850633
N    -0.199559  0.970027  4.981970
C    -0.954404  2.120721  4.501507
H    0.512176  1.149061  5.683601
H    -0.630155  2.412895  3.491637
H    -0.778699  2.956354  5.190881
H    -2.036277  1.923179  4.493504
