24
Energy: -18614.5634491 eV PBE+vdW (tier 2 basis)
C    -0.871426  0.447782  -0.406098
C    -0.621387  0.080027  1.053061
O    0.382310  0.490474  1.652123
H    -0.079364  0.011246  -1.030709
H    -1.848506  0.106209  -0.768287
H    -0.804403  1.538341  -0.508519
N    -1.561223  -0.741697  1.587001
C    -1.631637  -0.984582  3.023211
C    -0.527801  -1.905649  3.559555
O    -0.217058  -1.937426  4.751784
H    -2.572203  -0.761863  1.195966
H    -1.516800  -0.038480  3.576859
C    -3.010306  -1.620295  3.346395
C    -4.256614  -1.011593  2.616698
O    -5.295088  -0.884024  3.289285
O    -4.104527  -0.755202  1.366037
H    -3.174721  -1.579441  4.427571
H    -2.979111  -2.685549  3.059608
N    0.011121  -2.736354  2.618627
C    1.097851  -3.638300  2.906162
H    -0.256253  -2.534004  1.659491
H    1.229477  -3.653915  3.995099
H    2.042239  -3.305564  2.445102
H    0.877428  -4.659140  2.557975
