24
Energy: -18613.8017286 eV PBE+vdW (tier 2 basis)
C    -0.012374  0.095582  0.096782
C    -0.026148  0.028191  1.620466
O    1.020535  0.094200  2.269275
H    0.332706  1.093610  -0.204339
H    0.712292  -0.635758  -0.281980
H    -0.989879  -0.095021  -0.365707
N    -1.255545  -0.108461  2.179848
C    -1.509474  -0.086701  3.628693
C    -1.040763  1.290031  4.163745
O    -1.520033  2.304494  3.635843
H    -2.059118  -0.014200  1.572198
H    -2.604780  -0.028678  3.746236
C    -1.140661  -1.395907  4.324782
C    -1.929158  -1.570393  5.678819
O    -1.247771  -1.941579  6.673582
O    -3.163239  -1.331537  5.600459
H    -0.063480  -1.534415  4.452878
H    -1.495004  -2.203537  3.664499
N    -0.189285  1.419608  5.217182
C    0.734702  0.474388  5.839597
H    -0.029662  2.403585  5.410943
H    0.208018  -0.380074  6.293205
H    1.478855  0.111139  5.114796
H    1.259928  1.014695  6.637421
