24
Energy: -18613.8321376 eV PBE+vdW (tier 2 basis)
C    -0.059853  0.934204  -0.035939
C    0.180538  -0.064108  1.065723
O    1.328997  -0.437617  1.355932
H    0.915477  1.234448  -0.429336
H    -0.678897  0.496931  -0.831811
H    -0.605343  1.818995  0.314427
N    -0.872073  -0.592580  1.769941
C    -2.341836  -0.522046  1.746239
C    -3.058112  -1.807071  1.261979
O    -4.210877  -2.002241  1.660687
H    -0.515070  -1.267185  2.442214
H    -2.617271  -0.526788  2.815370
C    -2.995682  0.738394  1.167674
C    -3.112195  0.863262  -0.384389
O    -3.385446  2.009761  -0.808118
O    -2.936788  -0.208496  -1.039497
H    -2.517487  1.636781  1.583750
H    -4.028411  0.741175  1.546986
N    -2.383214  -2.809113  0.603600
C    -1.302234  -2.665292  -0.374006
H    -3.039731  -3.559559  0.407487
H    -1.315581  -3.555049  -1.016643
H    -1.476997  -1.773531  -0.991594
H    -0.316689  -2.611311  0.105790
