24
Energy: -18614.4024586 eV PBE+vdW (tier 2 basis)
C    1.151917  -1.312801  -0.098819
C    0.781191  -0.198525  0.876424
O    1.494952  0.808813  0.995103
H    2.148380  -1.693970  0.162346
H    0.434024  -2.142471  -0.094791
H    1.217273  -0.893916  -1.111811
N    -0.355570  -0.423243  1.563757
C    -0.898539  0.480037  2.558218
C    -0.164330  0.543217  3.916400
O    -0.178212  1.600385  4.555938
H    -0.931019  -1.310511  1.521836
H    -0.799727  1.513783  2.197168
C    -2.399876  0.147218  2.762772
C    -2.800604  -1.361077  2.906067
O    -3.751771  -1.613854  3.667878
O    -2.140440  -2.199661  2.188036
H    -2.945998  0.527940  1.883827
H    -2.775350  0.692585  3.635667
N    0.473045  -0.550931  4.429733
C    0.593855  -1.919683  3.947370
H    0.922948  -0.327494  5.311739
H    -0.324790  -2.255660  3.450939
H    0.764122  -2.570650  4.815393
H    1.440519  -2.041531  3.251810
