24
Energy: -18614.2759612 eV PBE+vdW (tier 2 basis)
C    0.222126  -1.093052  1.488208
C    0.056347  -0.417036  2.838271
O    0.881187  -0.584617  3.748373
H    0.705814  -2.061706  1.653419
H    0.904855  -0.482360  0.877526
H    -0.705183  -1.219199  0.914802
N    -1.016859  0.401868  3.004279
C    -2.075859  0.718893  2.058676
C    -2.585283  2.112970  2.420160
O    -2.384578  2.618984  3.533241
H    -1.069963  0.906222  3.888973
H    -1.671781  0.718858  1.032325
C    -3.240461  -0.309589  2.025672
C    -3.455086  -1.022639  0.634436
O    -4.378103  -1.866780  0.626844
O    -2.688963  -0.662592  -0.310483
H    -4.199854  0.150844  2.303808
H    -3.047927  -1.085863  2.777939
N    -3.307052  2.785436  1.477494
C    -3.683936  2.369522  0.135709
H    -3.677361  3.663245  1.829632
H    -4.768457  2.193992  0.064253
H    -3.185529  1.428079  -0.141577
H    -3.404094  3.143518  -0.594981
