24
Energy: -18614.5176917 eV PBE+vdW (tier 2 basis)
C    0.449376  -0.367588  1.036774
C    0.507906  0.318980  2.387062
O    1.518865  0.256205  3.098871
H    -0.421195  -1.032562  0.982240
H    1.370156  -0.946142  0.917830
H    0.374285  0.367041  0.224302
N    -0.575077  1.047223  2.796966
C    -1.918504  1.190168  2.238606
C    -2.744249  -0.127261  2.336219
O    -2.235152  -1.219407  2.625158
H    -0.446004  1.395443  3.741390
H    -2.423391  1.908083  2.902341
C    -1.962122  1.830058  0.827064
C    -3.181194  2.771907  0.529567
O    -4.247316  2.577425  1.211646
O    -2.996513  3.620255  -0.363767
H    -1.957338  1.056515  0.043795
H    -1.055239  2.431541  0.685510
N    -4.049014  0.086014  2.069877
C    -5.001899  -0.994424  1.996080
H    -4.289450  1.081708  1.755311
H    -5.828511  -0.848949  2.710123
H    -4.490740  -1.935642  2.235747
H    -5.438680  -1.071591  0.987290
