24
Energy: -18613.7973314 eV PBE+vdW (tier 2 basis)
C    0.735012  -0.442324  0.094629
C    0.441591  0.233868  1.432006
O    1.289906  0.934472  1.988758
H    1.602819  -1.103002  0.218380
H    1.008777  0.328867  -0.636904
H    -0.105389  -1.027694  -0.301703
N    -0.801657  0.003537  1.924700
C    -1.291350  0.476687  3.230864
C    -2.271679  -0.612773  3.738040
O    -1.918002  -1.408682  4.607986
H    -1.403063  -0.659942  1.446014
H    -0.448425  0.421118  3.930744
C    -1.815677  1.915769  3.204153
C    -2.843152  2.189979  4.342504
O    -3.364055  1.136650  4.836681
O    -3.080550  3.382611  4.628182
H    -2.314532  2.129770  2.245900
H    -0.979291  2.622335  3.276262
N    -3.322849  -0.988569  2.875049
C    -4.228644  -0.051598  2.213351
H    -3.809134  -1.762218  3.323398
H    -4.976844  -0.632410  1.656434
H    -3.689436  0.566876  1.484451
H    -4.726805  0.617314  2.930725
