24
Energy: -18614.266404 eV PBE+vdW (tier 2 basis)
C    1.160349  0.768544  0.379333
C    0.028906  1.012916  1.369010
O    -0.507306  2.136123  1.452220
H    0.841439  1.110986  -0.613432
H    2.031802  1.372211  0.670289
H    1.452564  -0.287081  0.327325
N    -0.274637  -0.050607  2.136931
C    -1.486727  -0.111805  2.946120
C    -1.188111  -0.316631  4.448607
O    -1.762214  -1.166666  5.130118
H    -0.045620  -1.083625  1.862233
H    -1.998451  0.863298  2.857895
C    -2.387029  -1.235976  2.392845
C    -1.694955  -2.569469  1.936815
O    -0.424477  -2.537347  1.726309
O    -2.451102  -3.541795  1.773299
H    -2.910031  -0.844747  1.505974
H    -3.148935  -1.502605  3.132586
N    -0.276114  0.519991  5.044960
C    0.467471  1.640081  4.499380
H    -0.126292  0.278315  6.019048
H    1.459907  1.342427  4.122198
H    0.605298  2.393369  5.288449
H    -0.074732  2.112091  3.670488
