24
Energy: -18614.0354702 eV PBE+vdW (tier 2 basis)
C    1.739442  -0.017146  -0.336600
C    0.664127  0.547307  0.585703
O    0.114715  1.628006  0.336822
H    1.288770  -0.225122  -1.316155
H    2.514718  0.745407  -0.483874
H    2.200738  -0.938042  0.042189
N    0.365736  -0.232695  1.648309
C    -0.555990  0.147243  2.707712
C    0.027847  -0.519303  3.985626
O    1.082294  -1.166021  3.928919
H    0.983329  -0.996442  1.930917
H    -0.477309  1.241654  2.837651
C    -2.006504  -0.222965  2.353610
C    -2.407325  -1.679024  2.741615
O    -1.668568  -2.206605  3.631802
O    -3.420449  -2.151794  2.179045
H    -2.163715  -0.062240  1.279583
H    -2.709479  0.455917  2.860852
N    -0.429340  -0.089880  5.218783
C    -1.783209  0.359055  5.502245
H    -0.019506  -0.675796  5.941103
H    -2.531652  -0.426068  5.311044
H    -2.032525  1.241634  4.899416
H    -1.832143  0.661921  6.556685
