24
Energy: -18613.500136 eV PBE+vdW (tier 2 basis)
C    0.181122  -0.599163  0.378864
C    -0.261968  0.283976  1.513255
O    0.327492  1.329800  1.822049
H    0.963771  -0.070442  -0.173408
H    0.583582  -1.552185  0.751588
H    -0.698064  -0.816430  -0.259227
N    -1.361256  -0.089023  2.252463
C    -2.318582  -1.202893  2.190202
C    -1.704525  -2.586146  1.899902
O    -2.221898  -3.406954  1.152678
H    -1.588790  0.628822  2.934675
H    -2.630078  -1.325401  3.250006
C    -3.622397  -0.909032  1.431565
C    -3.623599  -0.505412  -0.088932
O    -2.560182  -0.663851  -0.746857
O    -4.737056  -0.072711  -0.475616
H    -4.141813  -0.100617  1.970304
H    -4.265083  -1.797947  1.520200
N    -0.583286  -2.944015  2.627163
C    0.107556  -2.243894  3.693929
H    -0.274300  -3.882517  2.399068
H    0.655727  -2.982782  4.293744
H    -0.600014  -1.732983  4.361095
H    0.823632  -1.491712  3.328907
