24
Energy: -18614.3649535 eV PBE+vdW (tier 2 basis)
C    0.170326  -0.581888  0.476818
C    -0.012949  0.363036  1.661805
O    0.953887  0.956948  2.159891
H    0.845269  -1.396061  0.773973
H    0.657312  -0.035389  -0.341455
H    -0.774803  -1.008405  0.118033
N    -1.287667  0.463971  2.091927
C    -1.716574  1.356566  3.151298
C    -1.458353  0.893481  4.603104
O    -1.158675  1.735265  5.455981
H    -2.122942  0.018718  1.614204
H    -1.127093  2.283104  3.098765
C    -3.221358  1.682211  2.942893
C    -4.138381  0.467917  2.573727
O    -3.737912  -0.241967  1.583025
O    -5.172079  0.301038  3.253291
H    -3.611891  2.172167  3.841804
H    -3.288450  2.400318  2.109809
N    -1.563587  -0.424375  4.958641
C    -2.171039  -1.549971  4.255479
H    -1.442330  -0.529904  5.961494
H    -3.261041  -1.448707  4.155253
H    -1.948081  -2.459645  4.827782
H    -1.747591  -1.662428  3.253457
