24
Energy: -18614.4261368 eV PBE+vdW (tier 2 basis)
C    0.139881  -0.145792  0.167135
C    0.011424  -0.276446  1.666712
O    0.988500  -0.528718  2.383888
H    -0.656151  -0.670185  -0.374105
H    1.115586  -0.549052  -0.119297
H    0.082921  0.912214  -0.123142
N    -1.215832  -0.087838  2.243737
C    -2.555092  0.146207  1.683458
C    -2.983897  -0.993507  0.714186
O    -3.056419  -2.158774  1.136211
H    -1.171732  -0.226567  3.247434
H    -3.216888  -0.044924  2.542507
C    -2.831339  1.615807  1.279676
C    -2.103515  2.247977  0.050724
O    -2.434278  1.777029  -1.097076
O    -1.290957  3.165084  0.276771
H    -2.591586  2.236037  2.153835
H    -3.916219  1.696724  1.098962
N    -3.298261  -0.610417  -0.535534
C    -3.700685  -1.593051  -1.515453
H    -3.026910  0.395128  -0.846499
H    -3.884763  -1.079576  -2.467058
H    -4.618355  -2.118841  -1.208076
H    -2.926434  -2.363520  -1.668997
