19
Energy: -605152.1587647  eV PBE+vdW (tier 2 basis)
N    0.43306  -0.17854  0.01118
C    0.15562  -0.07536  1.45466
C    1.53628  -0.17308  2.13994
O    1.67878  -0.27333  3.37927
H    0.18388  -1.08979  -0.37378
H    -0.03955  0.53895  -0.53510
H    -0.18919  0.94970  1.66620
C    -0.91733  -1.02587  2.03178
C    -0.64546  -2.55264  1.96883
C    0.54062  -2.87382  2.83463
O    0.42107  -2.86983  4.10976
O    1.70325  -2.96734  2.29494
H    -1.85029  -0.82424  1.48873
H    -1.09732  -0.74408  3.07758
H    -0.45864  -2.90364  0.94597
H    -1.53327  -3.06935  2.35334
O    2.53747  -0.13676  1.31732
H    2.03397  -0.10055  0.40208
Pb    2.63737  -2.21507  4.30390
