19
Energy: -605151.7846999  eV PBE+vdW (tier 2 basis)
N    0.30085  0.15481  -0.10206
C    -0.16945  0.24841  1.26776
C    0.93472  0.84801  2.12839
O    0.78094  1.60492  3.10947
H    -0.47828  0.03360  -0.74634
H    0.95977  -0.61002  -0.24468
H    -0.99049  0.97884  1.28233
C    -0.67653  -1.08455  1.94483
C    -2.02143  -0.96985  2.71301
C    -1.91439  0.17541  3.66867
O    -1.22938  0.05856  4.74774
O    -2.35193  1.33318  3.31139
H    0.08959  -1.50158  2.61340
H    -0.81340  -1.80957  1.13254
H    -2.20776  -1.90350  3.25732
H    -2.84837  -0.78228  2.01807
O    2.14700  0.46914  1.77491
H    2.80780  0.87230  2.37539
Pb    -0.82443  2.33230  4.71100
