19
Energy: -605150.9830275  eV PBE+vdW (tier 2 basis)
N    0.22605  -0.22114  -0.25394
C    0.01629  -0.17822  1.17931
C    1.14391  0.43361  2.03393
O    0.98331  0.82968  3.16480
H    0.07699  0.68076  -0.70155
H    1.15817  -0.55261  -0.50164
H    -0.86576  0.44673  1.38168
C    -0.25906  -1.60062  1.71945
C    -1.47322  -2.19018  0.98977
C    -1.67864  -3.64010  1.19354
O    -0.68065  -4.46595  1.25033
O    -2.87463  -4.12852  1.29896
H    -0.42859  -1.55624  2.80291
H    0.62343  -2.23285  1.54418
H    -1.29639  -2.02542  -0.09561
H    -2.40749  -1.66885  1.23562
O    2.33333  0.44021  1.38451
H    2.99324  0.81869  1.99953
Pb    -2.07491  -6.23422  1.49011
