19
Energy: -605151.8374848  eV PBE+vdW (tier 2 basis)
N    -0.52698  0.60504  0.44856
C    0.01273  0.16986  1.71686
C    1.52824  0.34260  1.88596
O    2.13642  0.56659  2.95490
H    -0.15392  0.08222  -0.34332
H    -0.38090  1.59843  0.27512
H    -0.43925  0.78940  2.50607
C    -0.35971  -1.32827  1.97447
C    -1.00193  -1.61663  3.35660
C    -0.09718  -1.05787  4.40741
O    -0.32917  0.11930  4.87592
O    1.00274  -1.65343  4.69989
H    0.51185  -1.98254  1.83637
H    -1.09292  -1.58947  1.20086
H    -1.11016  -2.70050  3.48350
H    -1.98556  -1.13873  3.43061
O    2.20813  0.24590  0.75596
H    3.16523  0.34563  0.94067
Pb    1.91233  0.37146  5.32361
