19
Energy: -605151.7040839  eV PBE+vdW (tier 2 basis)
N    -0.82841  0.34983  0.17911
C    -0.45627  -0.01010  1.54606
C    0.99235  0.41461  1.77655
O    1.97027  -0.25317  1.38169
H    -0.23965  -0.10548  -0.51878
H    -0.83974  1.35385  0.00510
H    -1.09904  0.56712  2.23195
C    -0.71874  -1.50954  1.76200
C    -0.45557  -2.07224  3.18353
C    1.01585  -2.00722  3.46431
O    1.49645  -1.00994  4.12058
O    1.81205  -2.83727  2.89457
H    -0.13490  -2.08775  1.03127
H    -1.77738  -1.66408  1.51707
H    -0.78522  -3.11811  3.20479
H    -1.00578  -1.50873  3.94691
O    1.24435  1.59287  2.33821
H    0.42534  2.01561  2.66063
Pb    3.48303  -1.25326  2.92043
