19
Energy: -605150.9896068  eV PBE+vdW (tier 2 basis)
N    -0.11127  -0.79835  0.08767
C    0.02049  -0.07349  1.34713
C    1.46621  0.36703  1.59913
O    1.99198  0.40858  2.68886
H    0.52202  -0.44424  -0.62705
H    -1.06298  -0.76382  -0.27423
H    -0.55343  0.87629  1.35094
C    -0.50785  -0.92347  2.51473
C    0.20279  -2.28407  2.54062
C    -0.42806  -3.31095  3.38942
O    0.29789  -4.18083  4.02392
O    -1.71743  -3.39906  3.51615
H    -1.58787  -1.06953  2.37875
H    -0.35618  -0.38553  3.45853
H    1.25916  -2.20184  2.82555
H    0.18429  -2.66259  1.49346
O    2.07582  0.75168  0.45157
H    2.97364  1.05765  0.68920
Pb    -1.52343  -5.18861  4.88021
