19
Energy: -605151.6748472  eV PBE+vdW (tier 2 basis)
N    1.38008  -0.85614  0.85364
C    0.11108  -0.56061  1.51163
C    0.54660  0.52699  2.50073
O    1.01555  0.34239  3.64591
H    1.32354  -0.88767  -0.15940
H    1.84181  -1.68596  1.21734
H    -0.54916  -0.05665  0.79258
C    -0.59247  -1.80253  2.07691
C    -1.92564  -1.58092  2.84172
C    -1.60216  -0.95045  4.15889
O    -0.95266  -1.63686  5.03474
O    -1.79213  0.30528  4.34933
H    0.09968  -2.35794  2.72688
H    -0.79987  -2.44797  1.21240
H    -2.39067  -2.55983  3.01476
H    -2.62140  -0.94834  2.27826
O    0.48129  1.73470  1.96827
H    0.91390  2.38470  2.55887
Pb    0.01964  0.27882  5.80753
