19
Energy: -605151.1803119  eV PBE+vdW (tier 2 basis)
N    0.55767  -0.31946  -0.00071
C    -0.37855  -0.44338  1.11018
C    0.18940  0.54317  2.13232
O    1.26152  0.50945  2.65129
H    0.17563  -0.71472  -0.85767
H    1.45679  -0.75644  0.20111
H    -1.34793  -0.06861  0.75598
C    -0.54796  -1.85791  1.73524
C    -1.94780  -2.14998  2.35823
C    -2.45048  -0.92664  3.04820
O    -1.95181  -0.54604  4.17059
O    -3.28803  -0.15557  2.43855
H    0.23890  -2.02481  2.48248
H    -0.38947  -2.58873  0.93199
H    -1.86491  -2.97637  3.07457
H    -2.66547  -2.42168  1.57599
O    -0.67103  1.68184  2.41257
H    -0.05297  2.32961  2.81654
Pb    -2.76206  1.57937  3.81777
