19
Energy: -605150.9714930  eV PBE+vdW (tier 2 basis)
N    -0.80610  0.47096  1.38187
C    0.56669  0.06460  1.63279
C    1.49238  0.31719  0.43299
O    1.11278  0.40532  -0.71187
H    -0.92541  1.47835  1.47510
H    -1.08300  0.22296  0.42867
H    0.95603  0.63042  2.49007
C    0.61051  -1.44713  1.96681
C    -0.42730  -1.81586  3.03848
C    -0.01441  -1.64385  4.44448
O    0.87198  -0.76583  4.80102
O    -0.56204  -2.35850  5.38055
H    1.62680  -1.74152  2.25655
H    0.35793  -2.01417  1.05910
H    -0.83189  -2.82879  2.92451
H    -1.28238  -1.11568  2.87190
O    2.79003  0.39342  0.81800
H    3.32315  0.51861  0.00713
Pb    0.63007  -1.32013  6.98212
