19
Energy: -605151.8378484  eV PBE+vdW (tier 2 basis)
N    -0.78154  1.09234  1.01979
C    -0.01873  0.27427  1.93546
C    1.50542  0.34236  1.77123
O    2.35772  0.20885  2.67598
H    -0.65239  0.82391  0.04462
H    -0.57458  2.08605  1.10912
H    -0.21661  0.63578  2.95586
C    -0.47556  -1.21887  1.83054
C    -0.81682  -1.89801  3.18262
C    0.35352  -1.71585  4.09479
O    0.35510  -0.73284  4.92707
O    1.42370  -2.40507  3.92220
H    0.27062  -1.82500  1.29892
H    -1.38682  -1.20854  1.21913
H    -1.00463  -2.96481  3.01155
H    -1.70418  -1.43687  3.63136
O    1.90098  0.57862  0.53179
H    2.88019  0.58910  0.49765
Pb    2.65360  -0.69742  4.86432
