19
Energy: -605151.9397589  eV PBE+vdW (tier 2 basis)
N    0.97877  -0.96564  0.46734
C    0.14196  -0.47441  1.61839
C    0.94051  -0.44784  2.92267
O    0.45502  -0.23722  4.00057
H    1.63445  -0.22541  0.20047
H    0.36195  -1.11125  -0.33854
H    -0.09722  0.58591  1.42680
C    -1.22038  -1.19789  1.73964
C    -1.25149  -2.62525  2.35903
C    -0.02632  -3.33980  1.88195
O    1.01960  -3.30151  2.63794
O    0.07479  -3.75132  0.67547
H    -1.66400  -1.22513  0.73401
H    -1.86879  -0.55722  2.34896
H    -2.16372  -3.13598  2.03114
H    -1.23364  -2.56932  3.45226
O    2.28866  -0.61474  2.70647
H    2.71996  -0.53089  3.58148
Pb    2.32589  -3.08311  0.78595
