19
Energy: -605151.1851693  eV PBE+vdW (tier 2 basis)
N    0.10432  0.05130  0.10843
C    -0.21363  -0.13025  1.51451
C    1.06294  0.00126  2.35122
O    2.06317  -0.64763  2.29833
H    0.38488  1.00403  -0.11786
H    0.82393  -0.59374  -0.21891
H    -0.90603  0.66900  1.80355
C    -0.90106  -1.49790  1.69941
C    -1.33582  -1.91613  3.14329
C    -1.25065  -0.78036  4.10774
O    -0.38952  -0.79850  5.06216
O    -1.94862  0.29070  3.91485
H    -0.23128  -2.27847  1.31489
H    -1.77353  -1.46739  1.03758
H    -0.71177  -2.72984  3.52530
H    -2.37603  -2.26719  3.11264
O    1.05224  1.17215  3.23014
H    1.98990  1.25527  3.50946
Pb    -0.50025  1.49075  5.20570
