19
Energy: -605151.1902087  eV PBE+vdW (tier 2 basis)
N    0.12296  -0.60624  0.20523
C    -0.10951  -0.31647  1.59368
C    1.10411  -0.20776  2.54920
O    1.21045  0.52823  3.48062
H    0.66666  0.10719  -0.27292
H    0.50903  -1.52752  0.01296
H    -0.48177  0.71776  1.65703
C    -1.24106  -1.18218  2.21917
C    -1.24573  -2.69254  1.86235
C    0.10793  -3.27457  2.08642
O    0.58684  -3.39301  3.27270
O    0.87180  -3.52168  1.07350
H    -2.18988  -0.77223  1.85229
H    -1.23026  -1.05622  3.30952
H    -1.53184  -2.84527  0.81616
H    -1.97585  -3.19674  2.50862
O    2.29244  -1.00908  2.20620
H    2.98551  -0.55476  2.73218
Pb    2.71417  -3.46991  2.41408
