19
Energy: -605152.1290516  eV PBE+vdW (tier 2 basis)
N    -0.01831  -0.01762  -0.05343
C    0.07056  -0.04441  1.45925
C    1.41416  -0.81203  1.68825
O    1.81070  -1.50155  0.73514
H    0.69932  -0.79546  -0.27843
H    0.29714  0.86892  -0.45946
H    0.13482  0.98062  1.84244
C    -1.17862  -0.78083  1.99666
C    -1.30307  -0.92278  3.52499
C    -0.19787  -1.77452  4.10476
O    0.42491  -1.39244  5.15015
O    0.18952  -2.81029  3.45000
H    -1.21060  -1.78532  1.54806
H    -2.06253  -0.22658  1.64448
H    -2.26836  -1.40454  3.74058
H    -1.30205  0.04731  4.03574
O    1.95645  -0.65715  2.83759
H    -0.95197  -0.23700  -0.41563
Pb    2.34080  -2.41134  4.26986
