19
Energy: -605151.0276332  eV PBE+vdW (tier 2 basis)
N    -0.55556  0.28311  0.09503
C    -0.15944  0.12835  1.48222
C    1.36477  0.01012  1.54256
O    2.09539  0.14386  0.58592
H    0.23857  0.56080  -0.48425
H    -1.33416  0.92340  -0.03502
H    -0.41514  1.00717  2.10219
C    -0.87215  -1.09306  2.11472
C    -0.62276  -2.32879  1.24060
C    -1.53226  -3.46457  1.46890
O    -1.10444  -4.68645  1.36773
O    -2.78884  -3.28894  1.74486
H    -1.94849  -0.87873  2.14743
H    -0.52884  -1.24729  3.14504
H    0.41111  -2.69479  1.28771
H    -0.78926  -1.97648  0.19384
O    1.79832  -0.25077  2.79755
H    2.77539  -0.26738  2.76414
Pb    -3.15989  -5.51658  1.77194
