19
Energy: -605151.4309631  eV PBE+vdW (tier 2 basis)
N    0.39495  -0.65309  -0.05224
C    0.06661  -0.26003  1.38923
C    1.31272  0.27501  2.14578
O    1.26851  1.37715  2.63170
H    -0.50628  -0.68836  -0.54509
H    0.88157  0.15200  -0.46453
H    -0.56206  0.63778  1.31126
C    -0.78805  -1.29521  2.14949
C    -0.14736  -2.63356  2.61108
C    0.57321  -3.19450  1.42972
O    -0.06519  -3.64983  0.42301
O    1.85192  -2.99454  1.32614
H    -1.67233  -1.52144  1.53536
H    -1.15997  -0.77973  3.04539
H    -0.94589  -3.31128  2.93551
H    0.55258  -2.48299  3.44091
O    2.41811  -0.48991  2.22212
H    2.26183  -1.42925  1.95310
Pb    1.56508  -2.72929  -0.94519
