19
Energy: -605152.1235597  eV PBE+vdW (tier 2 basis)
N    0.34855  -0.31783  0.24296
C    0.00226  -0.23996  1.71045
C    1.41351  -0.46838  2.37746
O    1.55406  -0.38374  3.64104
H    0.22308  0.56590  -0.25700
H    -0.15534  -1.05704  -0.25498
H    -0.33490  0.78060  1.93383
C    -1.08595  -1.27107  2.09859
C    -2.14180  -0.74629  3.10352
C    -1.41330  -0.27342  4.32926
O    -1.06261  0.95845  4.40499
O    -0.98788  -1.13156  5.17654
H    -0.61706  -2.17759  2.50447
H    -1.63131  -1.57418  1.19297
H    -2.82263  -1.56625  3.36017
H    -2.71545  0.08173  2.66998
O    2.32693  -0.73120  1.57219
H    1.42842  -0.56938  0.37138
Pb    0.79242  0.28423  5.66717
