19
Energy: -605151.1803998  eV PBE+vdW (tier 2 basis)
N    0.34326  -0.09023  0.06072
C    0.03332  -0.06952  1.48582
C    1.41879  0.05770  2.12198
O    2.32803  -0.70736  2.03382
H    -0.48510  0.08705  -0.50422
H    0.76545  -0.97252  -0.22856
H    -0.53170  0.85201  1.67811
C    -0.73256  -1.29670  2.05749
C    -1.64309  -1.00404  3.29032
C    -0.97127  -0.01415  4.18121
O    0.02591  -0.35446  4.91804
O    -1.29464  1.23336  4.09768
H    -0.01755  -2.09399  2.29918
H    -1.38000  -1.67651  1.25689
H    -1.82806  -1.93596  3.83813
H    -2.60029  -0.58009  2.96662
O    1.64098  1.30547  2.83599
H    2.62008  1.35051  2.89985
Pb    0.65900  1.85184  5.09228
