19
Energy: -605151.7368260  eV PBE+vdW (tier 2 basis)
N    1.21842  -0.92326  0.61824
C    0.03282  -0.22702  1.12093
C    0.54342  1.03233  1.81318
O    0.91978  1.13790  3.00417
H    1.86907  -1.19282  1.35581
H    1.71387  -0.41202  -0.11031
H    -0.54958  0.10973  0.25181
C    -0.80282  -1.21054  1.94818
C    -2.15304  -0.69040  2.50478
C    -1.85500  0.26576  3.61460
O    -1.34647  -0.18787  4.70854
O    -1.91840  1.53461  3.42337
H    -0.20274  -1.61164  2.77779
H    -1.00547  -2.05243  1.27391
H    -2.71264  -1.54536  2.90472
H    -2.75356  -0.19924  1.73017
O    0.70239  2.03632  0.95802
H    1.17157  2.77512  1.39666
Pb    -0.23059  1.77785  5.00044
