19
Energy: -605151.7845893  eV PBE+vdW (tier 2 basis)
N    -0.25692  0.26624  0.30158
C    -0.23617  -0.21096  1.67233
C    0.99575  0.34832  2.37083
O    1.07834  0.68359  3.57088
H    -1.18250  0.15248  -0.10769
H    0.41947  -0.21007  -0.29456
H    -1.09931  0.23480  2.18625
C    -0.28030  -1.77373  1.88924
C    -1.28638  -2.26560  2.96546
C    -1.03067  -1.49848  4.22348
O    -0.01104  -1.77094  4.95376
O    -1.72750  -0.44246  4.46643
H    0.71954  -2.16743  2.11983
H    -0.57578  -2.21035  0.92682
H    -1.13754  -3.33852  3.13659
H    -2.31799  -2.08854  2.63922
O    2.05529  0.43325  1.59092
H    2.81489  0.78162  2.10233
Pb    0.02058  0.41869  5.68824
