19
Energy: -605151.0263153  eV PBE+vdW (tier 2 basis)
N    -0.49706  -0.14402  0.34186
C    0.06375  -0.01523  1.67503
C    1.57483  -0.29392  1.70433
O    2.15182  -0.97362  0.88610
H    -0.01114  -0.87803  -0.17934
H    -0.42041  0.71927  -0.19256
H    -0.10784  1.00605  2.04321
C    -0.62767  -1.01727  2.63484
C    -2.14508  -0.82054  2.54726
C    -2.96488  -1.93164  3.06370
O    -4.11256  -1.70202  3.62580
O    -2.59026  -3.16885  2.94518
H    -0.26275  -0.87546  3.66040
H    -0.36898  -2.03991  2.32506
H    -2.36281  -0.73126  1.45583
H    -2.48898  0.11473  3.00782
O    2.16411  0.28487  2.77555
H    3.11332  0.04823  2.74849
Pb    -4.49854  -3.90678  3.89931
