30
Energy: -251649.8015897  eV PBE+vdW (tier 2 basis)
C    0.522237  0.215496  0.114250
C    0.165393  0.073782  1.560165
O    1.021391  -0.360443  2.387857
H    -0.278526  0.644355  -0.496819
H    0.777331  -0.778102  -0.280856
H    1.421654  0.837576  0.019701
N    -1.076278  0.416785  1.934990
C    -1.745423  0.245605  3.243892
C    -1.140116  1.157804  4.322403
O    -0.037538  0.853583  4.883045
H    -1.680829  0.743859  1.186399
H    -2.772274  0.585567  3.067265
C    -1.838290  -1.226270  3.693451
C    -2.716505  -1.432615  4.931091
S    -4.377260  -0.730730  4.644297
C    -5.236045  -1.267391  6.146700
H    -0.837174  -1.643334  3.882023
H    -2.252531  -1.793353  2.847911
H    -2.266340  -0.977631  5.827470
H    -2.812791  -2.510969  5.117571
H    -6.259006  -0.884158  6.061089
H    -4.769417  -0.848132  7.045287
H    -5.270214  -2.361437  6.200102
N    -1.785224  2.255610  4.683516
C    -3.075654  2.765248  4.202066
H    -1.325914  2.788542  5.422040
H    -3.316925  3.660600  4.781020
H    -3.862515  2.014563  4.363445
H    -3.019421  3.048088  3.144003
Ba    2.032938  -0.368607  4.576543
