30
Energy: -251649.4531243  eV PBE+vdW (tier 2 basis)
C    0.386022  -0.453045  0.289859
C    0.264732  -0.396880  1.777812
O    1.297502  -0.320253  2.511456
H    0.890149  0.460291  -0.056197
H    -0.577759  -0.542933  -0.221741
H    1.026176  -1.298393  0.005486
N    -0.961198  -0.418873  2.320224
C    -1.257451  -0.224518  3.745064
C    -0.927071  -1.500080  4.559704
O    0.243625  -1.563173  5.068292
H    -1.756456  -0.461153  1.686872
H    -0.502838  0.483409  4.116192
C    -2.651645  0.421312  3.970813
C    -3.736418  0.192628  2.896585
S    -5.430192  0.116917  3.552421
C    -5.674373  1.811669  4.151214
H    -2.488030  1.501399  4.070893
H    -3.027200  0.088716  4.947896
H    -3.639869  -0.779570  2.389651
H    -3.681983  0.967293  2.117470
H    -6.713134  1.847090  4.499683
H    -5.555442  2.534694  3.335525
H    -5.018156  2.059715  4.993139
N    -1.764978  -2.505625  4.761796
C    -3.130430  -2.742037  4.282000
H    -1.366930  -3.239766  5.347685
H    -3.159122  -2.777489  3.186997
H    -3.834353  -1.982869  4.649013
H    -3.446485  -3.717290  4.661187
Ba    2.521100  -0.894773  4.527764
