30
Energy: -251650.1269313  eV PBE+vdW (tier 2 basis)
C    0.299561  1.052525  1.118559
C    -0.251841  0.360105  2.320165
O    0.355170  0.376230  3.426926
H    1.280229  0.621285  0.875008
H    0.469760  2.109782  1.362064
H    -0.350630  0.983906  0.240273
N    -1.434397  -0.293294  2.204899
C    -2.014113  -0.937827  3.372205
C    -1.419496  -2.337090  3.637191
O    -0.637106  -2.446658  4.630037
H    -1.916733  -0.278000  1.310831
H    -1.611811  -0.345485  4.204712
C    -3.516055  -0.787913  3.614393
C    -3.824358  -1.033924  5.106830
S    -2.837063  -0.096106  6.337414
C    -3.403789  1.612562  6.086740
H    -4.134376  -1.475684  3.021955
H    -3.808874  0.232006  3.327105
H    -3.658918  -2.084271  5.384949
H    -4.878641  -0.815317  5.317973
H    -2.930220  2.217618  6.868327
H    -4.489769  1.652334  6.228603
H    -3.130342  2.006955  5.102459
N    -1.692331  -3.388656  2.876443
C    -2.517628  -3.487124  1.674452
H    -1.220917  -4.245857  3.170303
H    -1.899960  -3.812071  0.828122
H    -2.972576  -2.525126  1.429998
H    -3.316944  -4.221729  1.830981
Ba    0.485619  -0.530728  5.783571
