30
Energy: -251649.5923140  eV PBE+vdW (tier 2 basis)
C    -0.014889  -0.123110  -0.052523
C    -0.156326  0.097047  1.417362
O    0.800393  0.574670  2.101775
H    0.855610  -0.763843  -0.244997
H    0.186730  0.843621  -0.535375
H    -0.901779  -0.571476  -0.511905
N    -1.320542  -0.209893  2.007808
C    -1.637373  0.089610  3.412150
C    -0.872849  -0.851479  4.364966
O    0.176596  -0.391067  4.927743
H    -2.074752  -0.557056  1.419281
H    -1.201053  1.077155  3.628274
C    -3.159065  0.198026  3.620457
C    -3.737690  1.502177  3.044499
S    -5.549399  1.524423  2.982672
C    -5.976257  1.781564  4.726465
H    -3.365538  0.143759  4.698689
H    -3.678848  -0.654779  3.161641
H    -3.431487  1.639535  1.996570
H    -3.367642  2.374711  3.605381
H    -5.536022  2.711356  5.106734
H    -5.699388  0.931110  5.360650
H    -7.067844  1.880875  4.746442
N    -1.252079  -2.096701  4.616744
C    -2.382954  -2.869965  4.094181
H    -0.663336  -2.572072  5.300955
H    -2.143250  -3.931228  4.209422
H    -2.538804  -2.672423  3.029822
H    -3.302305  -2.655674  4.652368
Ba    2.104561  0.878834  4.132054
