30
Energy: -251649.2116384  eV PBE+vdW (tier 2 basis)
C    0.280774  2.047217  1.677577
C    0.011707  0.731109  2.331903
O    0.663568  0.363837  3.357362
H    -0.336071  2.835692  2.137918
H    0.071538  2.034053  0.602570
H    1.329518  2.314485  1.847174
N    -0.954696  -0.081058  1.848702
C    -2.260842  0.395948  1.399914
C    -2.980459  1.015726  2.624727
O    -2.501298  0.882251  3.798642
H    -0.968314  -1.011516  2.268604
H    -2.118278  1.180693  0.640877
C    -3.057933  -0.774915  0.780569
C    -2.419883  -1.323160  -0.505148
S    -3.199373  -2.848500  -1.094333
C    -4.734982  -2.223848  -1.829491
H    -4.081728  -0.435541  0.571298
H    -3.153230  -1.582829  1.524465
H    -2.428682  -0.561205  -1.300030
H    -1.369032  -1.597187  -0.334704
H    -5.422826  -1.806699  -1.084218
H    -4.523430  -1.492717  -2.619117
H    -5.215710  -3.097504  -2.284992
N    -4.109208  1.673487  2.413127
C    -4.931884  2.277855  3.464529
H    -4.440415  1.754295  1.455248
H    -5.807502  2.735192  2.997020
H    -4.366918  3.052583  3.996514
H    -5.264222  1.513531  4.176756
Ba    -0.702216  0.351109  5.412326
