30
Energy: -251649.2275163  eV PBE+vdW (tier 2 basis)
C    0.223976  -0.283207  -0.055748
C    0.120897  -0.220602  1.433556
O    1.175457  0.002804  2.143391
H    0.639473  0.658901  -0.437926
H    -0.742134  -0.466633  -0.535999
H    0.918740  -1.086610  -0.336738
N    -1.050581  -0.396243  1.999968
C    -1.384241  -0.449352  3.417215
C    -2.791044  -1.144385  3.376687
O    -3.363517  -1.208998  2.285369
H    -1.907926  -0.633645  1.451347
H    -0.650492  -1.080160  3.941348
C    -1.468838  0.960667  4.082573
C    -0.684974  1.134618  5.391810
S    0.964062  1.932989  5.329905
C    0.570583  3.646408  4.867390
H    -2.523461  1.185257  4.294505
H    -1.164643  1.712856  3.343836
H    -0.492259  0.178775  5.895762
H    -1.249202  1.748156  6.106659
H    0.096752  3.711472  3.882358
H    1.512527  4.207402  4.867537
H    -0.083560  4.072651  5.636678
N    -3.330396  -1.612335  4.514958
C    -2.774067  -1.634319  5.860025
H    -4.264108  -1.997802  4.387014
H    -2.916854  -0.679489  6.386536
H    -1.707958  -1.894776  5.846407
H    -3.286230  -2.413108  6.433517
Ba    3.034949  0.683445  3.363108
