30
Energy: -251649.9168133  eV PBE+vdW (tier 2 basis)
C    -0.216961  0.404558  0.412723
C    -0.150444  -0.052771  1.835122
O    0.933621  -0.517215  2.306707
H    -1.194418  0.806878  0.127973
H    0.024093  -0.445732  -0.240742
H    0.551856  1.168535  0.237892
N    -1.259042  0.044117  2.578436
C    -1.528318  -0.481758  3.932408
C    -0.754737  0.259508  5.028717
O    0.492035  0.093621  5.198029
H    -2.091931  0.371090  2.092291
H    -2.602709  -0.279976  4.061848
C    -1.396379  -2.010509  4.049673
C    -2.250854  -2.761529  3.011383
S    -3.947507  -2.146380  2.784946
C    -4.756995  -2.716774  4.306974
H    -1.705454  -2.283334  5.069637
H    -0.349096  -2.336543  3.944495
H    -2.279741  -3.829400  3.266324
H    -1.798335  -2.690844  2.012660
H    -5.809555  -2.426725  4.211074
H    -4.346934  -2.250589  5.210862
H    -4.700005  -3.808934  4.381628
N    -1.463120  1.050467  5.822542
C    -0.932145  1.805107  6.957445
H    -2.454237  1.152778  5.619712
H    -0.714711  2.839392  6.660679
H    -0.016464  1.327373  7.314846
H    -1.678619  1.813206  7.758083
Ba    2.504615  -0.742074  4.109734
