30
Energy: -251650.0781994  eV PBE+vdW (tier 2 basis)
C    0.042198  -0.081481  0.564747
C    -0.147796  0.170767  2.025772
O    0.716860  0.819961  2.689185
H    1.011873  -0.567386  0.397133
H    0.075340  0.886606  0.044887
H    -0.749749  -0.694378  0.121968
N    -1.259904  -0.294124  2.612984
C    -1.677250  -0.019930  3.994882
C    -0.890023  -0.915165  4.982192
O    0.246789  -0.487609  5.386514
H    -1.905705  -0.821712  2.031418
H    -1.311112  0.991024  4.226539
C    -3.220650  0.047771  4.116815
C    -4.102851  -0.987446  3.402118
S    -4.142841  -2.698452  4.040860
C    -5.218824  -2.514755  5.493198
H    -3.508501  1.032880  3.718414
H    -3.469334  0.081517  5.186898
H    -3.857569  -1.087452  2.333418
H    -5.135947  -0.613998  3.410957
H    -4.798825  -1.834889  6.243288
H    -5.310410  -3.516445  5.928479
H    -6.211900  -2.175067  5.178536
N    -1.381665  -2.066339  5.370032
C    -0.701638  -2.977213  6.287613
H    -2.308784  -2.372587  4.962071
H    0.207722  -3.386879  5.829467
H    -1.383399  -3.800356  6.518880
H    -0.431090  -2.457893  7.214407
Ba    2.058982  0.961035  4.711328
