30
Energy: -251649.4071338  eV PBE+vdW (tier 2 basis)
C    0.290596  -0.522866  0.258709
C    -0.046907  -0.285017  1.695275
O    0.715294  -0.770239  2.618838
H    1.300257  -0.146462  0.046996
H    -0.418391  -0.045251  -0.424522
H    0.296156  -1.604516  0.065011
N    -1.119471  0.416827  1.986684
C    -1.746593  0.667914  3.282986
C    -3.252958  0.826965  2.888981
O    -3.503598  1.061244  1.702754
H    -1.789500  0.715811  1.244155
H    -1.587708  -0.197052  3.942555
C    -1.252442  1.971393  3.945939
C    0.219472  2.008360  4.351305
S    0.633226  0.770182  5.658614
C    1.303249  1.782799  7.013793
H    -1.876935  2.174053  4.826268
H    -1.426604  2.801265  3.243159
H    0.467087  2.986914  4.781298
H    0.884453  1.853833  3.493341
H    1.555831  1.094485  7.828300
H    0.522394  2.467928  7.360759
H    2.193227  2.335006  6.696924
N    -4.195746  0.735210  3.840803
C    -4.055327  0.457789  5.264121
H    -5.136992  0.909181  3.491464
H    -4.105209  1.378095  5.863329
H    -3.109177  -0.052462  5.473319
H    -4.866985  -0.205697  5.583012
Ba    2.270158  -1.426558  4.231290
