30
Energy: -251649.1935833  eV PBE+vdW (tier 2 basis)
C    0.348595  0.003059  0.680001
C    0.156923  0.311345  2.129560
O    1.150781  0.551143  2.883952
H    0.371338  0.932858  0.089405
H    -0.441034  -0.639485  0.276202
H    1.321574  -0.484719  0.553768
N    -1.086527  0.358556  2.656563
C    -2.225571  0.971360  1.982187
C    -1.940370  2.498792  1.873605
O    -0.903581  3.006992  2.409436
H    -1.110179  0.425330  3.675048
H    -2.297061  0.564654  0.961604
C    -3.527261  0.670366  2.746824
C    -3.893542  -0.813762  2.760691
S    -5.384230  -1.001063  3.788553
C    -5.650185  -2.788374  3.656665
H    -4.353256  1.238608  2.295278
H    -3.434278  1.049183  3.779362
H    -3.075127  -1.421292  3.177889
H    -4.090323  -1.167887  1.736401
H    -6.544635  -2.997878  4.254383
H    -4.806826  -3.350772  4.074219
H    -5.841398  -3.086251  2.619227
N    -2.808127  3.240821  1.209180
C    -2.702917  4.692239  1.032076
H    -3.620362  2.778607  0.807771
H    -3.547722  5.027175  0.425046
H    -1.769213  4.947467  0.517497
H    -2.736494  5.199256  2.003690
Ba    1.287682  2.911508  3.569467
