30
Energy: -251649.4533454  eV PBE+vdW (tier 2 basis)
C    -0.619489  1.342044  -0.643020
C    -0.672182  1.230681  0.842979
O    0.311878  1.657495  1.563072
H    0.250503  0.784379  -1.016639
H    -0.479670  2.393354  -0.928541
H    -1.523172  0.956362  -1.125064
N    -1.724896  0.692987  1.421749
C    -1.915716  0.484949  2.850872
C    -3.122161  -0.498835  2.909915
O    -3.885965  -0.527365  1.945613
H    -2.544866  0.349211  0.889849
H    -1.007178  0.025450  3.271350
C    -2.237230  1.825195  3.566273
C    -1.911419  1.875092  5.053812
S    -0.125284  1.578310  5.384192
C    0.046615  2.119227  7.110309
H    -3.307860  2.045757  3.442245
H    -1.705091  2.638151  3.049871
H    -2.468229  1.122796  5.628014
H    -2.160986  2.863509  5.459334
H    1.086475  1.940509  7.405477
H    -0.607148  1.503673  7.737946
H    -0.201832  3.180080  7.216299
N    -3.268846  -1.208544  4.042952
C    -4.378025  -2.142335  4.249684
H    -2.503785  -1.226230  4.708744
H    -5.207720  -1.845866  3.602204
H    -4.697623  -2.103109  5.296195
H    -4.079944  -3.168220  3.997824
Ba    1.816758  2.531987  3.117075
