30
Energy: -251649.9552837  eV PBE+vdW (tier 2 basis)
C    -0.406981  0.043893  -0.214313
C    -0.704994  0.740496  1.073540
O    -0.361158  1.948174  1.254064
H    -0.919448  0.577315  -1.027456
H    -0.720442  -1.005097  -0.224906
H    0.669103  0.101782  -0.422852
N    -1.360248  0.065613  2.030481
C    -1.845354  0.659797  3.288132
C    -0.671367  0.793472  4.282573
O    0.050940  1.841374  4.251732
H    -1.622759  -0.896136  1.828975
H    -2.135780  1.694169  3.051446
C    -3.091502  -0.078551  3.799263
C    -3.949878  0.813518  4.705254
S    -3.044823  1.675341  6.029106
C    -2.901191  0.384652  7.291154
H    -2.825031  -1.016116  4.312888
H    -3.699040  -0.379041  2.931196
H    -4.776102  0.238900  5.143347
H    -4.407405  1.617081  4.110597
H    -2.424950  0.855656  8.158711
H    -2.285286  -0.464031  6.967297
H    -3.895736  0.031971  7.587654
N    -0.322283  -0.253330  5.017952
C    0.798881  -0.251420  5.957154
H    -0.935402  -1.061887  5.014839
H    1.736834  -0.032070  5.434744
H    0.869478  -1.240648  6.416593
H    0.638777  0.502488  6.738719
Ba    0.590796  3.639873  2.726167
