30
Energy: -251649.9547970  eV PBE+vdW (tier 2 basis)
C    0.059330  0.160581  -0.027709
C    -0.038193  0.176546  1.463522
O    0.980962  0.423716  2.177798
H    0.370213  1.158719  -0.367657
H    -0.879750  -0.106566  -0.523197
H    0.844185  -0.541176  -0.337928
N    -1.231229  -0.060781  2.028102
C    -1.534367  0.065545  3.465529
C    -1.051390  -1.204189  4.201234
O    0.173721  -1.289484  4.534198
H    -2.011799  -0.252556  1.404205
H    -0.902306  0.879239  3.851696
C    -3.006536  0.467235  3.656342
C    -3.305580  1.127602  5.004288
S    -2.828804  0.075860  6.417956
C    -3.318695  1.153514  7.790457
H    -3.681798  -0.387338  3.483500
H    -3.252837  1.197413  2.870639
H    -4.380698  1.343852  5.062533
H    -2.769784  2.086298  5.075801
H    -2.767753  2.100676  7.768858
H    -3.070902  0.611561  8.709716
H    -4.398972  1.336364  7.765022
N    -1.892070  -2.206118  4.388994
C    -1.561932  -3.440326  5.099609
H    -2.873878  -2.041996  4.182723
H    -0.559349  -3.774550  4.818911
H    -2.292455  -4.207047  4.827422
H    -1.599973  -3.271634  6.184549
Ba    2.311924  -0.236321  4.100935
