30
Energy: -251650.0621474  eV PBE+vdW (tier 2 basis)
C    0.609899  2.579280  1.546367
C    0.441902  1.174900  2.021832
O    1.296147  0.283805  1.756523
H    0.657151  2.583055  0.448811
H    1.573458  2.964424  1.906376
H    -0.192011  3.248835  1.874083
N    -0.652856  0.866600  2.757618
C    -0.837703  -0.481362  3.273258
C    -1.461355  -1.443197  2.244301
O    -0.675934  -2.292600  1.722986
H    -1.323912  1.601646  2.963551
H    0.185035  -0.872050  3.328143
C    -1.289575  -0.610467  4.735396
C    -0.058870  -0.752330  5.654537
S    1.141094  -2.069904  5.215451
C    0.170687  -3.584418  5.479639
H    -1.944902  -1.484740  4.846339
H    -1.878122  0.256963  5.069007
H    -0.364029  -0.933482  6.692944
H    0.545013  0.166324  5.653376
H    0.867043  -4.425011  5.377865
H    -0.645557  -3.694019  4.757048
H    -0.220881  -3.587636  6.503338
N    -2.741768  -1.395439  1.905120
C    -3.782647  -0.486442  2.379438
H    -3.017353  -2.076416  1.195934
H    -3.436228  0.081760  3.246217
H    -4.662865  -1.065921  2.680857
H    -4.073695  0.208331  1.581326
Ba    1.847833  -2.160488  1.824316
