30
Energy: -251649.5862203  eV PBE+vdW (tier 2 basis)
C    -0.794414  -1.489200  -1.542687
C    -1.002710  -0.199271  -0.825689
O    -0.243501  0.789386  -1.014084
H    -1.370994  -2.322250  -1.131235
H    0.268381  -1.737178  -1.630941
H    -1.167485  -1.322710  -2.568162
N    -2.113215  0.003177  -0.045111
C    -2.598987  -0.681620  1.158207
C    -2.644856  0.426494  2.253331
O    -1.866818  1.420710  2.176933
H    -2.317928  1.000056  0.011326
H    -3.631489  -1.028530  0.991377
C    -1.793656  -1.914129  1.643243
C    -0.262672  -1.882135  1.749258
S    0.470574  -0.616143  2.865710
C    2.128795  -1.322489  3.104824
H    -2.035851  -2.755675  0.978217
H    -2.214817  -2.193366  2.619369
H    0.223306  -1.806612  0.770804
H    0.043532  -2.847352  2.175135
H    2.682055  -0.621538  3.740176
H    2.654320  -1.459699  2.153645
H    2.038234  -2.278132  3.633390
N    -3.521653  0.266178  3.231502
C    -3.687943  1.160333  4.378201
H    -4.139947  -0.540988  3.183645
H    -3.331266  0.669893  5.292528
H    -4.749591  1.405694  4.492657
H    -3.117652  2.075236  4.204258
Ba    0.358324  2.064583  1.139288
