30
Energy: -251649.1814464  eV PBE+vdW (tier 2 basis)
C    0.109903  1.143105  0.400513
C    0.249751  0.904867  1.869224
O    1.190688  1.442015  2.531801
H    -0.492211  2.046677  0.213823
H    -0.362827  0.303785  -0.120632
H    1.105630  1.324414  -0.019065
N    -0.641279  0.123108  2.518490
C    -2.080213  0.171520  2.277127
C    -2.592736  1.547285  2.784280
O    -1.800142  2.370582  3.350231
H    -0.381056  -0.093734  3.481424
H    -2.256913  0.123406  1.191030
C    -2.788374  -1.025403  2.948408
C    -2.400941  -2.375692  2.327176
S    -3.376269  -3.759527  2.976924
C    -2.519675  -4.112685  4.535535
H    -3.876075  -0.901156  2.856519
H    -2.575103  -1.013020  4.029922
H    -1.328742  -2.588644  2.448399
H    -2.607831  -2.362762  1.246453
H    -3.029701  -4.986412  4.957862
H    -2.599587  -3.290790  5.257466
H    -1.470010  -4.376651  4.357283
N    -3.871226  1.834818  2.607307
C    -4.514939  3.078082  3.040125
H    -4.457128  1.137995  2.154254
H    -4.051043  3.941314  2.548415
H    -4.437069  3.190746  4.127934
H    -5.570580  3.034530  2.760753
Ba    0.412487  3.229942  4.040601
