13
Energy: -8811.75311346 eV PBE+vdW (tier 2 basis)
N    -0.054702  1.108522  0.680953
C    0.033325  -0.112240  1.470883
C    1.507399  -0.522191  1.562602
O    2.334354  -0.249763  0.726027
H    -0.930107  1.145620  0.160891
H    0.715622  1.118314  0.008024
H    -0.324800  0.098569  2.497455
H    -0.414245  -1.573997  -0.086613
C    -0.778463  -1.301337  0.912661
H    -0.718204  -2.189122  1.558984
H    -1.837280  -1.019782  0.834087
H    1.085375  -1.355652  3.240849
O    1.850725  -1.277941  2.644196
