13
Energy: -8811.9064138 eV PBE+vdW (tier 2 basis)
N    -0.291723  -0.962447  -0.055176
C    0.042164  -0.062825  1.048340
C    1.530847  0.036216  1.425103
O    1.967102  0.362827  2.508607
H    0.291387  -0.766721  -0.868559
H    -0.099910  -1.929463  0.212170
H    -0.215071  0.960648  0.717499
C    -0.800008  -0.389969  2.280180
H    -0.588538  -1.408826  2.635793
H    -1.862972  -0.328893  2.021692
H    -0.582338  0.300617  3.101348
O    2.349435  -0.245104  0.367240
H    3.258624  -0.107060  0.696764
