13
Energy: -8811.88434265 eV PBE+vdW (tier 2 basis)
N    0.308504  -0.457895  -0.124557
C    -0.097609  -0.066693  1.227073
C    1.118597  0.138875  2.120623
O    1.211563  0.982217  2.986037
H    -0.519073  -0.592190  -0.706507
H    0.808000  -1.348110  -0.102884
H    -0.571571  0.922760  1.162382
C    -1.070483  -1.030223  1.942505
H    -0.621677  -2.027244  2.049896
H    -1.990901  -1.128791  1.351383
H    -1.342058  -0.658255  2.940010
O    2.091236  -0.788241  1.887481
H    2.804474  -0.593211  2.525558
