13
Energy: -8811.92303426 eV PBE+vdW (tier 2 basis)
N    -0.505098  -0.038363  0.256293
C    -0.177746  -0.573745  1.575048
C    1.046454  0.162167  2.103330
O    1.494340  1.190655  1.639663
H    -0.235290  0.944868  0.205355
H    -1.503844  -0.109740  0.072440
H    -0.958846  -0.362469  2.337836
C    0.016885  -2.094467  1.516097
H    0.842758  -2.344140  0.838473
H    -0.894647  -2.562281  1.122133
H    0.221555  -2.514799  2.507513
O    1.576669  -0.437989  3.203471
H    2.320810  0.130304  3.481348
