13
Energy: -8811.73020401 eV PBE+vdW (tier 2 basis)
N    -0.078349  -1.474313  0.194792
C    0.121757  -0.168866  0.844924
C    1.620084  0.080679  1.105558
O    2.372541  0.508043  0.261872
H    0.472511  -1.522541  -0.663841
H    0.251476  -2.230997  0.797956
H    -0.167087  0.599288  0.114169
H    -1.826730  -0.157031  1.766210
C    -0.778788  -0.054032  2.072115
H    -0.590836  -0.858733  2.804195
H    -0.655545  0.912118  2.578743
H    1.372277  -0.557761  2.904911
O    2.111688  -0.292854  2.328395
