13
Energy: -8811.93604668 eV PBE+vdW (tier 2 basis)
N    -0.514579  0.775342  0.647957
C    -0.107173  0.045851  1.847597
C    1.390858  -0.249789  1.977927
O    2.033309  -0.168282  3.003842
H    -0.022984  1.667024  0.582464
H    -0.271926  0.244662  -0.190020
H    -0.346544  0.668864  2.720940
C    -0.887420  -1.270642  1.954340
H    -0.629738  -1.809356  2.874630
H    -0.667636  -1.924738  1.099027
H    -1.962015  -1.052320  1.956345
O    1.947698  -0.645404  0.793831
H    2.885151  -0.834214  0.992119
