13
Energy: -8812.03821515 eV PBE+vdW (tier 2 basis)
N    0.025011  0.488372  0.381516
C    0.016628  -0.172405  1.704062
C    1.477176  -0.461693  2.137051
O    1.762861  -1.117298  3.113868
H    -0.210976  -0.173920  -0.358150
H    -0.649046  1.249467  0.332754
H    -0.349960  0.561000  2.439794
H    -0.741002  -1.900312  2.771383
C    -0.842573  -1.433057  1.785397
H    -0.521516  -2.169534  1.034077
H    -1.899941  -1.195761  1.610719
H    1.832568  0.560817  0.636284
O    2.391770  0.114322  1.335247
