16
Energy: -604081.613952 eV PBE+vdW (tier 2 basis)
N    -0.294794  0.070313  -0.259483
C    0.078446  -0.035591  1.183973
C    1.282305  -0.944193  1.409903
O    1.870281  -1.068938  2.440611
H    -1.184978  0.572596  -0.334417
H    0.394302  0.629840  -0.771186
H    0.406046  0.946906  1.560530
C    -1.125582  -0.475318  2.036140
C    -1.877223  -1.763202  1.667553
O    -1.303048  -2.595595  0.765146
O    -2.924541  -2.020360  2.203191
H    -1.865862  0.337342  2.061597
H    -0.785641  -0.590714  3.075599
O    1.666732  -1.641080  0.248635
H    2.438128  -2.194594  0.496125
Pb    -0.401571  -2.276412  -1.126918
