16
Energy: -604081.562468 eV PBE+vdW (tier 2 basis)
N    -0.390652  0.676457  0.463479
C    -0.106561  -0.088186  1.636875
C    1.400358  -0.025309  1.874065
O    2.251994  0.147128  1.058195
H    -1.384561  0.749556  0.261453
H    0.123609  0.376940  -0.363063
H    -0.605734  0.369865  2.502530
C    -0.596215  -1.613274  1.595874
C    -0.169455  -2.242102  2.870342
O    0.882707  -2.983057  2.915726
O    -0.697271  -1.827026  3.977412
H    -0.160483  -2.126613  0.732622
H    -1.688814  -1.582130  1.518019
O    1.781465  -0.169050  3.255099
H    2.740960  0.037926  3.233144
Pb    1.319654  -2.092125  4.978228
