16
Energy: -604082.078773 eV PBE+vdW (tier 2 basis)
N    -0.464099  0.018064  -0.100232
C    -0.077112  -0.048817  1.342965
C    1.209590  -0.860823  1.531294
O    1.732486  -1.027174  2.599031
H    -1.264326  0.649504  -0.209130
H    0.310139  0.415305  -0.638861
H    0.143345  0.959243  1.727960
C    -1.230835  -0.650861  2.213836
C    -1.710328  -1.790226  1.362546
O    -2.698900  -1.614890  0.571474
O    -0.884302  -2.764071  1.164070
H    -2.024716  0.084114  2.379496
H    -0.803377  -0.972402  3.170189
O    1.708389  -1.328155  0.343694
H    2.542648  -1.794269  0.556635
Pb    -1.149426  -2.303214  -1.058797
