16
Energy: -604082.103423 eV PBE+vdW (tier 2 basis)
N    -0.752201  0.572238  -0.454575
C    -0.337082  0.557197  0.972758
C    0.914474  -0.295235  1.107431
O    1.237903  -1.179892  0.302395
H    -0.167869  1.213260  -0.998852
H    -1.712620  0.919947  -0.523278
H    -0.075873  1.568721  1.319503
C    -1.472676  0.033922  1.885067
C    -2.086729  -1.365747  1.669641
O    -1.733836  -2.089891  0.598181
O    -2.887628  -1.760619  2.481964
H    -2.302987  0.755593  1.836247
H    -1.128317  0.068458  2.926924
O    1.616724  -0.016142  2.186194
H    2.377485  -0.631015  2.260322
Pb    -0.570768  -1.832794  -1.181925
