16
Energy: -604082.055273 eV PBE+vdW (tier 2 basis)
N    -0.389521  -0.076852  -0.113561
C    -0.392359  -0.131739  1.319728
C    0.979824  -0.048187  2.033614
O    1.159326  0.121679  3.257897
H    0.153010  -0.819026  -0.551945
H    -0.078383  0.820256  -0.479686
H    -0.940960  0.743730  1.703895
C    -1.203104  -1.392877  1.783079
C    -1.173929  -1.433141  3.278905
O    -1.747690  -0.485672  3.936180
O    -0.388482  -2.248932  3.883114
H    -0.766788  -2.307389  1.365673
H    -2.221419  -1.259447  1.401657
O    2.011169  -0.120303  1.213368
H    2.842896  -0.039324  1.726557
Pb    0.069410  -0.511778  5.336527
