16
Energy: -604082.433467 eV PBE+vdW (tier 2 basis)
N    0.136956  0.855249  0.496902
C    0.247322  -0.052381  1.643846
C    1.776480  -0.234750  1.904738
O    2.286653  -0.908240  2.825176
H    -0.268862  0.412490  -0.326720
H    -0.393960  1.698879  0.705150
H    -0.137347  0.435665  2.551669
C    -0.540290  -1.378312  1.448521
C    -0.107789  -2.324433  2.536709
O    -0.346366  -2.008700  3.757173
O    0.686210  -3.286419  2.249945
H    -0.319784  -1.821192  0.469551
H    -1.612221  -1.157800  1.523178
O    2.518575  0.451171  1.094693
H    1.804648  0.914409  0.502004
Pb    1.807777  -2.754637  4.212467
