16
Energy: -604082.243593 eV PBE+vdW (tier 2 basis)
N    0.541912  -0.950322  0.263883
C    0.236608  -0.172290  1.533728
C    1.400982  -0.355377  2.560539
O    1.575419  0.500187  3.394261
H    -0.000846  -0.611798  -0.539600
H    0.275688  -1.951361  0.482146
H    0.140137  0.888876  1.282579
C    -1.088483  -0.729117  2.123652
C    -0.727793  -2.115155  2.622798
O    -0.522742  -2.295822  3.863179
O    -0.359878  -2.991292  1.751354
H    -1.878686  -0.755590  1.361007
H    -1.404536  -0.088380  2.952333
O    2.062744  -1.502628  2.424231
H    1.543652  -0.914864  0.041178
Pb    1.462316  -3.435003  3.372750
