16
Energy: -604081.969332 eV PBE+vdW (tier 2 basis)
N    0.110600  -0.966503  -0.200369
C    -0.153712  -0.158094  1.028620
C    1.189040  0.305286  1.609954
O    2.246402  -0.190918  1.289703
H    0.958388  -1.523433  -0.014449
H    0.394771  -0.317682  -0.940798
H    -0.759413  0.707287  0.736050
C    -0.942114  -0.947619  2.139088
C    -1.832408  -1.846616  1.343119
O    -2.749732  -1.317190  0.611420
O    -1.445445  -3.051031  1.121989
H    -1.494160  -0.226323  2.750390
H    -0.268700  -1.539404  2.767836
O    1.012119  1.277923  2.514733
H    1.885720  1.517748  2.886838
Pb    -1.787357  -2.523430  -1.094123
