16
Energy: -604082.297352 eV PBE+vdW (tier 2 basis)
N    0.048082  1.155891  0.802729
C    0.304015  -0.099627  1.593371
C    1.519012  -0.742367  0.805034
O    2.106826  -1.778445  1.268328
H    -0.899229  1.215251  0.418291
H    0.809217  0.971872  0.009191
H    0.653038  0.172164  2.596592
C    -0.971495  -0.964646  1.707684
C    -0.502947  -2.317807  2.199432
O    0.031499  -2.385537  3.358401
O    -0.430154  -3.281014  1.365990
H    -1.457816  -1.084898  0.731082
H    -1.668927  -0.509326  2.422502
O    1.848713  -0.117096  -0.217343
H    0.251523  2.015029  1.320694
Pb    1.657644  -3.745444  2.327027
