16
Energy: -604082.346840 eV PBE+vdW (tier 2 basis)
N    0.395057  -0.247279  0.532681
C    0.114452  -0.095198  2.011032
C    1.266314  -0.729683  2.802419
O    2.099180  -1.445511  2.154073
H    -0.036143  0.493659  -0.028819
H    -0.015762  -1.215192  0.270158
H    -0.044472  0.958948  2.261452
C    -1.118728  -0.981394  2.352689
C    -0.688211  -2.410591  1.979497
O    -0.316675  -3.207135  2.946098
O    -0.579350  -2.671026  0.771355
H    -1.983198  -0.676930  1.749142
H    -1.351090  -0.868090  3.414295
O    1.163652  -0.749859  4.063493
H    1.408905  -0.284986  0.360787
Pb    1.685071  -3.098733  3.908649
