16
Energy: -604082.243512 eV PBE+vdW (tier 2 basis)
N    -0.771154  0.840229  0.211756
C    -0.464002  0.537765  1.629420
C    0.741839  -0.409806  1.606127
O    1.096872  -1.027047  0.601244
H    -1.675676  1.313022  0.133891
H    -0.056026  1.449012  -0.193392
H    -0.181449  1.433858  2.202146
C    -1.710677  -0.116478  2.325128
C    -2.134356  -1.168320  1.322572
O    -2.927896  -0.853361  0.385182
O    -1.367507  -2.204667  1.238826
H    -2.486167  0.642579  2.476493
H    -1.409114  -0.541173  3.288458
O    1.367988  -0.465694  2.768689
H    2.105311  -1.109257  2.712733
Pb    -0.949985  -1.508662  -0.930273
