16
Energy: -604081.970998 eV PBE+vdW (tier 2 basis)
N    -0.210608  -0.218439  -0.169346
C    -0.308814  -0.089357  1.264690
C    1.046989  -0.304093  1.941605
O    1.266410  -0.228915  3.168369
H    0.505982  0.380837  -0.575514
H    -1.099570  -0.001113  -0.617376
H    -0.616272  0.910168  1.641055
C    -1.403511  -1.096445  1.767470
C    -1.374585  -1.108415  3.262454
O    -1.658491  -0.025594  3.899256
O    -0.840215  -2.097048  3.881948
H    -1.202681  -2.091860  1.359585
H    -2.371119  -0.730730  1.400945
O    2.040279  -0.507519  1.099419
H    2.879672  -0.588131  1.599790
Pb    0.107536  -0.527347  5.280651
