16
Energy: -604082.022256 eV PBE+vdW (tier 2 basis)
N    -0.075563  -0.127892  -0.075381
C    0.119484  -0.014338  1.357961
C    1.622269  -0.159653  1.706172
O    2.300698  -1.196632  1.587864
H    0.456281  0.551349  -0.617401
H    0.101229  -1.070943  -0.421786
H    -0.195647  0.996784  1.660371
C    -0.809332  -1.001465  2.124336
C    -0.176627  -2.362837  2.096929
O    0.412573  -2.801753  3.147771
O    -0.019159  -2.964519  0.970125
H    -1.772385  -0.994556  1.598443
H    -0.946513  -0.682629  3.162418
O    2.291631  0.935939  2.039004
H    1.698287  1.707100  2.117976
Pb    2.079114  -3.570761  1.751003
