32
Energy: -103893.621306 eV PBE+vdW (tier 2 basis)
C    -0.506698  0.523853  -0.227612
C    -0.741693  0.444840  1.244262
O    -0.694144  1.492602  1.964977
H    -0.532658  -0.451323  -0.724576
H    0.460510  1.004945  -0.422595
H    -1.279044  1.169864  -0.669445
N    -1.015513  -0.745295  1.790377
C    -1.433029  -0.972257  3.184990
C    -0.183281  -0.906653  4.092325
O    0.180006  0.222567  4.556560
H    -1.059174  -1.544693  1.162406
H    -2.049368  -0.107352  3.478811
C    -2.310681  -2.238380  3.323541
C    -3.503417  -2.191221  2.340832
C    -2.782624  -2.380980  4.778012
C    -4.380985  -3.444505  2.364523
H    -1.700828  -3.124161  3.053209
H    -3.142589  -2.046187  1.310316
H    -4.113697  -1.302261  2.573874
H    -1.962652  -2.353694  5.507362
H    -3.300911  -3.334702  4.920482
H    -3.492922  -1.582288  5.035603
H    -5.142192  -3.384806  1.577974
H    -4.910267  -3.565828  3.316820
H    -3.791909  -4.354320  2.183600
N    0.491859  -2.014793  4.332785
C    1.699767  -2.126290  5.150346
H    0.110666  -2.877268  3.948456
H    1.555059  -2.910498  5.902252
H    1.888401  -1.173103  5.648447
H    2.556358  -2.392017  4.518368
Sr    -0.031347  2.416203  3.927717
