32
Energy: -103893.585072 eV PBE+vdW (tier 2 basis)
C    0.206011  -0.098340  0.066075
C    -0.163976  -0.152335  1.511302
O    0.719554  0.012840  2.411650
H    -0.634386  -0.301285  -0.605554
H    1.013011  -0.814743  -0.135150
H    0.605137  0.902110  -0.154933
N    -1.443351  -0.364425  1.841793
C    -2.008000  -0.271386  3.199611
C    -1.660597  -1.544736  4.004316
O    -0.551601  -1.580207  4.632552
H    -2.107243  -0.482781  1.079504
H    -1.451608  0.527382  3.713551
C    -3.485431  0.198758  3.145311
C    -3.980676  0.545874  4.564949
C    -4.461078  -0.714893  2.380559
C    -5.326537  1.273326  4.590707
H    -3.424460  1.147746  2.584568
H    -3.223342  1.179578  5.055312
H    -4.050413  -0.373815  5.169867
H    -5.325471  -0.132130  2.043125
H    -4.885243  -1.513313  3.010570
H    -4.039862  -1.179529  1.475762
H    -6.147912  0.644750  4.224988
H    -5.300528  2.187603  3.982332
H    -5.578822  1.567133  5.616206
N    -2.497543  -2.563618  4.013329
C    -2.299246  -3.825207  4.726977
H    -3.366394  -2.447725  3.494434
H    -2.006645  -4.616280  4.024524
H    -3.239026  -4.110410  5.211667
H    -1.521682  -3.697902  5.483473
Sr    1.513362  -0.615039  4.441623
