32
Energy: -103893.5006 eV PBE+vdW (tier 2 basis)
C    -1.785138  -0.836289  -0.153506
C    -1.254439  -0.748635  1.243410
O    -0.033681  -0.989076  1.465103
H    -1.593165  -1.846887  -0.539276
H    -1.225476  -0.140672  -0.793265
H    -2.854513  -0.617705  -0.237353
N    -2.125800  -0.412147  2.211060
C    -2.007088  -0.278625  3.684696
C    -1.035204  0.828005  4.105817
O    0.180254  0.831897  3.741485
H    -3.071964  -0.264939  1.872481
H    -3.005464  0.076651  3.963739
C    -1.863248  -1.617388  4.486927
C    -0.530162  -2.399886  4.391620
C    -3.041955  -2.532325  4.120653
C    0.594998  -1.974625  5.351187
H    -1.990323  -1.312828  5.540723
H    -0.211792  -2.446761  3.335211
H    -0.756727  -3.449512  4.625248
H    -4.006153  -2.011276  4.192049
H    -3.083080  -3.386418  4.806892
H    -2.944815  -2.933040  3.102314
H    0.306598  -2.164916  6.393480
H    0.838011  -0.896944  5.338086
H    1.510257  -2.573065  5.201216
N    -1.479670  1.787614  4.908912
C    -2.829322  1.997513  5.448295
H    -0.770093  2.472530  5.169761
H    -3.552475  2.192728  4.646712
H    -2.796579  2.878778  6.094743
H    -3.155461  1.144468  6.055062
Sr    1.731670  -0.608229  2.851517
