32
Energy: -103892.247235 eV PBE+vdW (tier 2 basis)
C    -0.653102  -2.064198  1.525278
C    -0.997911  -1.117913  2.620858
O    -0.603570  -1.353669  3.832249
H    0.435409  -2.203271  1.481543
H    -1.016157  -1.726652  0.549726
H    -1.093747  -3.045902  1.751659
N    -1.708136  -0.038850  2.368159
C    -2.182725  0.925187  3.351762
C    -3.210948  1.774975  2.538127
O    -3.138449  1.740047  1.309817
H    -2.040410  0.217905  1.418295
H    -2.707687  0.373832  4.150394
C    -1.000145  1.752123  3.971150
C    -1.167568  1.906128  5.497529
C    -0.730280  3.086295  3.264213
C    0.108150  2.302374  6.251819
H    -0.091653  1.137349  3.787890
H    -1.624436  0.976101  5.923727
H    -1.946525  2.650850  5.723245
H    -0.635036  2.942549  2.181209
H    0.203540  3.541503  3.614885
H    -1.543531  3.801857  3.440259
H    -0.012642  2.255591  7.342264
H    0.410186  3.329122  6.011325
H    1.008771  1.711309  5.962905
N    -4.085705  2.508425  3.244847
C    -5.094118  3.363166  2.612547
H    -4.144145  2.373219  4.248246
H    -5.215521  4.278716  3.200643
H    -6.058530  2.844024  2.543390
H    -4.754493  3.616486  1.604611
Sr    0.213717  -0.788040  5.784240
