32
Energy: -103893.523865 eV PBE+vdW (tier 2 basis)
C    1.061267  0.236117  0.165559
C    0.674191  -0.517799  1.398608
O    1.498878  -1.312086  1.936185
H    1.964600  0.825699  0.371114
H    0.277451  0.900402  -0.212211
H    1.326163  -0.487712  -0.617769
N    -0.559598  -0.314544  1.887133
C    -1.312063  -0.946557  2.996155
C    -0.737563  -0.611157  4.376260
O    0.465377  -0.882218  4.681969
H    -1.114166  0.341518  1.345299
H    -2.283686  -0.444303  2.930443
C    -1.670633  -2.465403  2.829554
C    -0.584436  -3.507481  3.183318
C    -2.260443  -2.692720  1.431315
C    -1.098628  -4.951854  3.213915
H    -2.481258  -2.615696  3.564452
H    -0.200546  -3.278798  4.199721
H    0.234920  -3.437804  2.442383
H    -1.488685  -2.653584  0.650620
H    -3.028108  -1.945311  1.190678
H    -2.744027  -3.673146  1.369466
H    -0.326629  -5.638086  3.583299
H    -1.389877  -5.300174  2.216961
H    -1.968347  -5.047517  3.876950
N    -1.538164  -0.069867  5.285705
C    -2.944871  0.332625  5.160417
H    -1.094990  0.085448  6.191356
H    -3.587151  -0.524567  4.925248
H    -3.067896  1.118575  4.405177
H    -3.262756  0.738961  6.124437
Sr    2.205674  -2.163960  3.913283
