32
Energy: -103892.784747 eV PBE+vdW (tier 2 basis)
C    -0.430570  0.502885  -0.415294
C    -0.242086  0.049110  0.991963
O    0.755775  0.437563  1.676406
H    -0.559638  1.593591  -0.459088
H    -1.260834  0.007726  -0.926028
H    0.500895  0.283870  -0.958322
N    -1.139266  -0.782283  1.571540
C    -2.595975  -0.600080  1.505081
C    -2.879982  0.871816  1.865034
O    -2.091533  1.477027  2.675012
H    -0.820956  -1.178581  2.456781
H    -2.948751  -0.809941  0.487597
C    -3.251497  -1.661651  2.456642
C    -4.788151  -1.773892  2.312882
C    -2.812264  -1.536062  3.921642
C    -5.651868  -0.851789  3.179385
H    -2.837655  -2.603715  2.060329
H    -5.043946  -2.812439  2.567354
H    -5.057822  -1.676906  1.250394
H    -3.269071  -2.344781  4.505928
H    -3.126174  -0.589242  4.380496
H    -1.726589  -1.658532  4.073474
H    -5.405330  0.214109  3.081792
H    -5.574851  -1.103005  4.244402
H    -6.707897  -0.968693  2.907409
N    -3.891259  1.535708  1.329928
C    -4.893468  1.113717  0.348671
H    -3.993534  2.488346  1.683080
H    -4.548244  0.246164  -0.218550
H    -5.065187  1.943469  -0.345249
H    -5.837409  0.864472  0.848444
Sr    0.053328  1.739978  3.473478
