32
Energy: -103892.140921 eV PBE+vdW (tier 2 basis)
C    -2.100117  -1.258836  -1.065121
C    -2.429039  -0.201936  -0.067282
O    -2.447088  1.049970  -0.471354
H    -1.036051  -1.188718  -1.334453
H    -2.681737  -1.094520  -1.981003
H    -2.293726  -2.268047  -0.691624
N    -2.699632  -0.444550  1.181243
C    -2.788317  -1.696938  1.939143
C    -3.591571  -1.214917  3.190321
O    -3.709860  0.011610  3.365035
H    -2.998041  0.313373  1.857858
H    -3.378086  -2.433249  1.373294
C    -1.382901  -2.290062  2.266497
C    -1.489839  -3.739045  2.784848
C    -0.575137  -1.379250  3.195871
C    -0.173451  -4.515650  2.697052
H    -0.861515  -2.343483  1.294396
H    -2.256489  -4.278898  2.202887
H    -1.828249  -3.732669  3.833226
H    -0.480628  -0.358160  2.801530
H    0.440531  -1.768730  3.325965
H    -1.033423  -1.311081  4.192084
H    -0.315200  -5.547795  3.038817
H    0.610815  -4.072902  3.323383
H    0.199044  -4.557949  1.664192
N    -4.096573  -2.152136  3.993981
C    -4.835162  -1.860684  5.221415
H    -3.941287  -3.126052  3.753951
H    -5.821400  -2.337873  5.186373
H    -4.955916  -0.778040  5.306501
H    -4.285201  -2.234427  6.093830
Sr    -2.535862  3.096964  -1.075113
