32
Energy: -103892.8866 eV PBE+vdW (tier 2 basis)
C    0.392575  2.038011  0.120824
C    0.486053  1.079270  1.259564
O    1.351573  1.237410  2.178220
H    0.002443  3.008102  0.463728
H    -0.222613  1.669423  -0.704794
H    1.411932  2.227488  -0.242788
N    -0.363868  0.032211  1.342701
C    -1.813124  0.137982  1.131350
C    -2.318173  1.252241  2.069174
O    -1.670031  1.497880  3.149602
H    -0.104774  -0.658260  2.049236
H    -2.016754  0.403545  0.085703
C    -2.441853  -1.260100  1.432433
C    -1.874910  -2.319662  0.456486
C    -3.973220  -1.259565  1.461831
C    -2.184165  -2.101660  -1.024924
H    -2.098581  -1.526354  2.450550
H    -2.285335  -3.287435  0.779954
H    -0.785647  -2.409136  0.589956
H    -4.385578  -0.593280  2.230379
H    -4.411811  -0.993478  0.492782
H    -4.322622  -2.270983  1.701649
H    -3.261423  -2.062621  -1.229356
H    -1.778018  -2.931156  -1.615773
H    -1.725453  -1.185154  -1.426405
N    -3.388437  1.973207  1.780642
C    -4.256666  1.952355  0.600712
H    -3.646443  2.644065  2.506001
H    -4.408211  2.983460  0.261937
H    -5.228726  1.513239  0.854493
H    -3.806557  1.373991  -0.208782
Sr    0.357484  1.701524  4.226552
