32
Energy: -103891.977764 eV PBE+vdW (tier 2 basis)
C    0.051455  1.306573  0.664423
C    -0.456926  1.199111  2.061062
O    0.331459  1.586842  3.040485
H    0.439162  2.319044  0.491741
H    -0.713014  1.082435  -0.084110
H    0.888261  0.606921  0.525769
N    -1.636123  0.746578  2.369835
C    -2.737264  0.231908  1.544132
C    -3.921651  0.359948  2.552033
O    -3.623285  0.399821  3.761561
H    -1.988636  0.705018  3.364277
H    -2.877116  0.874808  0.665108
C    -2.443493  -1.237675  1.087067
C    -3.406867  -1.702034  -0.019745
C    -2.377902  -2.213897  2.265702
C    -2.939042  -2.969280  -0.739896
H    -1.439070  -1.185294  0.629101
H    -3.520355  -0.896641  -0.763169
H    -4.404282  -1.877751  0.410257
H    -3.362670  -2.353637  2.731517
H    -2.031413  -3.195043  1.923415
H    -1.684275  -1.882972  3.050493
H    -3.618080  -3.208344  -1.567006
H    -2.919555  -3.842619  -0.076723
H    -1.933552  -2.842939  -1.165492
N    -5.189326  0.405961  2.127642
C    -5.738355  0.568488  0.784661
H    -5.858333  0.433567  2.896054
H    -6.472686  1.382434  0.797128
H    -6.234060  -0.348525  0.443539
H    -4.954097  0.828600  0.069392
Sr    1.553520  2.216773  4.675756
