32
Energy: -103892.701318 eV PBE+vdW (tier 2 basis)
C    0.096988  -0.325439  -0.248360
C    0.207787  -0.114724  1.226102
O    1.349257  0.115768  1.748234
H    -0.296195  -1.322872  -0.490099
H    1.082945  -0.204872  -0.705632
H    -0.594627  0.405907  -0.686035
N    -0.868941  -0.150680  2.041904
C    -1.955566  -1.140900  1.983092
C    -1.276874  -2.536468  2.213650
O    -0.005515  -2.640499  2.294663
H    -0.650987  0.176706  2.982552
H    -2.541774  -0.962940  2.899500
C    -2.978092  -0.952577  0.813326
C    -3.645515  0.447092  0.924427
C    -4.067433  -2.037412  0.796079
C    -2.909077  1.637076  0.307639
H    -2.444282  -1.017340  -0.144946
H    -3.881225  0.650783  1.982379
H    -4.621017  0.365511  0.425904
H    -4.610540  -2.101776  1.753511
H    -3.697055  -3.028978  0.504729
H    -4.817625  -1.771976  0.042142
H    -3.545064  2.529609  0.355714
H    -2.693400  1.466350  -0.756925
H    -1.974825  1.890729  0.823096
N    -2.044268  -3.589574  2.412990
C    -1.553901  -4.938675  2.705460
H    -3.050393  -3.457441  2.336940
H    -2.408020  -5.620654  2.711172
H    -1.070442  -4.967131  3.689893
H    -0.841541  -5.261765  1.938075
Sr    2.135148  -1.844447  2.652964
