32
Energy: -103892.807738 eV PBE+vdW (tier 2 basis)
C    0.089106  0.185723  1.516963
C    -0.941466  0.612689  2.510890
O    -0.667644  1.531953  3.351541
H    -0.324387  0.147529  0.502226
H    0.469898  -0.820073  1.750680
H    0.923996  0.891732  1.544532
N    -2.170837  0.052184  2.557956
C    -2.465770  -1.386815  2.465475
C    -1.749640  -2.062378  3.676693
O    -1.019477  -1.375123  4.470249
H    -2.806873  0.567286  3.165983
H    -3.543602  -1.461333  2.681241
C    -2.275769  -2.017126  1.048263
C    -2.962549  -1.125535  -0.015510
C    -2.796789  -3.464125  0.968847
C    -4.478379  -0.966747  0.115182
H    -1.201246  -2.048595  0.818501
H    -2.725032  -1.573300  -0.991338
H    -2.496517  -0.129414  -0.026206
H    -3.790028  -3.589207  1.425910
H    -2.097805  -4.197169  1.393712
H    -2.907022  -3.749192  -0.084647
H    -4.777349  -0.453692  1.041927
H    -5.007448  -1.927207  0.073930
H    -4.861435  -0.356300  -0.711111
N    -1.962311  -3.343150  3.906114
C    -1.403718  -4.094543  5.032927
H    -2.546970  -3.846474  3.242101
H    -0.310125  -4.022849  5.037291
H    -1.692958  -5.142797  4.923143
H    -1.799590  -3.714026  5.982497
Sr    -0.221464  0.581887  5.399417
