32
Energy: -103893.572264 eV PBE+vdW (tier 2 basis)
C    -1.503037  -0.309367  -0.413639
C    -1.421866  0.125476  1.013134
O    -0.560716  -0.392385  1.787878
H    -1.835709  -1.358093  -0.432252
H    -0.504444  -0.282147  -0.866781
H    -2.193717  0.288847  -1.016794
N    -2.293604  1.050066  1.437652
C    -2.558286  1.539716  2.810441
C    -1.396215  2.421211  3.305148
O    -0.286623  1.906061  3.648675
H    -2.941378  1.386196  0.730822
H    -3.437697  2.189414  2.693946
C    -2.959380  0.462424  3.855875
C    -4.230680  -0.326641  3.465704
C    -3.164963  1.142605  5.219309
C    -4.122047  -1.373532  2.353334
H    -2.135270  -0.272125  3.946404
H    -5.036088  0.390777  3.236866
H    -4.557586  -0.836859  4.383009
H    -3.424613  0.393164  5.975985
H    -3.998262  1.858670  5.180712
H    -2.277536  1.679526  5.580859
H    -3.244521  -2.023147  2.487639
H    -4.080254  -0.940476  1.346726
H    -5.004020  -2.024662  2.371847
N    -1.611967  3.724642  3.381132
C    -0.655409  4.723038  3.859433
H    -2.525947  4.066404  3.094341
H    0.213220  4.215902  4.284390
H    -1.133734  5.342348  4.626768
H    -0.338439  5.364767  3.027930
Sr    0.814787  -0.092820  3.552510
