32
Energy: -103892.170602 eV PBE+vdW (tier 2 basis)
C    -0.053052  0.381779  0.042892
C    -0.268325  -0.012625  1.463318
O    0.745759  -0.342244  2.203006
H    0.650081  1.224112  -0.006896
H    -0.984537  0.659295  -0.459834
H    0.407374  -0.457907  -0.496916
N    -1.480814  -0.026680  1.965099
C    -1.879502  -0.426149  3.312061
C    -3.436783  -0.441014  3.197447
O    -3.943025  0.172111  2.254040
H    -2.324554  0.270195  1.429107
H    -1.511465  -1.447679  3.494338
C    -1.294015  0.554680  4.396921
C    -0.422275  -0.196540  5.426742
C    -2.331379  1.464747  5.067150
C    0.645751  0.677756  6.100813
H    -0.623705  1.224929  3.831162
H    0.016238  -1.102111  4.937912
H    -1.042785  -0.649860  6.213460
H    -2.928977  1.996606  4.316777
H    -1.841095  2.228349  5.683793
H    -3.017405  0.905861  5.715190
H    1.355239  0.104593  6.720441
H    0.188774  1.404708  6.784458
H    1.196399  1.337634  5.391632
N    -4.153705  -1.120842  4.108180
C    -3.692111  -1.921221  5.232911
H    -5.159583  -1.051870  3.962700
H    -4.430608  -2.704241  5.433129
H    -3.575118  -1.323875  6.149203
H    -2.744791  -2.422590  5.000555
Sr    2.182304  -0.491973  3.833745
