32
Energy: -103892.418042 eV PBE+vdW (tier 2 basis)
C    0.080098  -0.361704  0.735249
C    -0.250323  -0.109793  2.166348
O    0.672073  0.064540  3.025868
H    0.989366  -0.964596  0.640993
H    0.300407  0.619260  0.281309
H    -0.741653  -0.801963  0.163055
N    -1.534591  -0.058583  2.578575
C    -2.591265  -1.004912  2.161302
C    -1.956092  -2.424770  2.321403
O    -1.075024  -2.551318  3.252296
H    -1.652072  0.340650  3.507717
H    -3.307937  -0.973495  3.000154
C    -3.413905  -0.595993  0.901192
C    -3.413377  0.935830  0.671363
C    -4.849274  -1.129983  1.030758
C    -4.069486  1.804391  1.747068
H    -2.935390  -1.028681  0.009063
H    -3.937418  1.097453  -0.282098
H    -2.384257  1.280320  0.495497
H    -5.395493  -0.991958  0.090023
H    -5.394583  -0.585068  1.811891
H    -4.907028  -2.193382  1.289837
H    -3.973839  2.862846  1.476880
H    -3.608446  1.692748  2.740193
H    -5.141342  1.601126  1.855778
N    -2.252593  -3.515626  1.632610
C    -3.095232  -3.825017  0.470771
H    -1.770496  -4.331575  2.013556
H    -2.570800  -4.586648  -0.116431
H    -3.259764  -2.950242  -0.154879
H    -4.057460  -4.237552  0.798246
Sr    0.700907  -1.744242  4.478043
