32
Energy: -103893.521972 eV PBE+vdW (tier 2 basis)
C    -0.233630  -0.010401  -0.146717
C    -0.076181  -0.010044  1.341268
O    1.066953  -0.190266  1.852374
H    0.420150  0.760523  -0.576340
H    -1.260725  0.161807  -0.484016
H    0.114730  -0.976624  -0.537059
N    -1.180606  0.186319  2.080657
C    -1.421222  0.189645  3.545873
C    -0.615572  1.270822  4.280096
O    0.644628  1.179299  4.418360
H    -2.027718  0.308286  1.532652
H    -2.473107  0.487347  3.609968
C    -1.387387  -1.211133  4.234968
C    -2.176466  -1.160795  5.564588
C    -0.016495  -1.870838  4.445846
C    -3.694296  -1.048372  5.409948
H    -1.946679  -1.859633  3.540313
H    -1.786187  -0.347250  6.200572
H    -1.951571  -2.084906  6.116074
H    0.540748  -1.982368  3.501296
H    -0.156718  -2.890185  4.827064
H    0.568523  -1.348152  5.225111
H    -4.101331  -1.908932  4.862822
H    -4.018854  -0.139619  4.881942
H    -4.178882  -1.028911  6.393399
N    -1.247683  2.306922  4.816358
C    -2.673930  2.650219  4.814903
H    -0.632480  2.940849  5.327755
H    -3.222497  2.062103  5.560804
H    -3.116954  2.509181  3.823532
H    -2.762968  3.709565  5.072779
Sr    2.433408  -0.016457  3.653805
