32
Energy: -103892.979001 eV PBE+vdW (tier 2 basis)
C    -1.222975  1.789964  0.261040
C    -0.672486  0.923694  1.344597
O    0.144165  1.389032  2.203195
H    -2.055315  2.401313  0.644055
H    -1.576374  1.218437  -0.602809
H    -0.437473  2.487786  -0.053877
N    -1.052427  -0.367536  1.444085
C    -2.437378  -0.818977  1.305729
C    -3.246337  -0.122203  2.430727
O    -2.646616  0.424692  3.418431
H    -0.498802  -0.917688  2.102576
H    -2.833695  -0.482397  0.335979
C    -2.474758  -2.377905  1.338513
C    -1.572678  -2.950776  0.217175
C    -3.897040  -2.949788  1.276020
C    -1.985338  -2.611100  -1.215261
H    -2.035840  -2.683460  2.306456
H    -1.570923  -4.042273  0.350544
H    -0.529920  -2.638427  0.380243
H    -3.841991  -4.038772  1.159062
H    -4.464299  -2.573769  0.411679
H    -4.474387  -2.765782  2.190233
H    -1.305335  -3.098171  -1.924139
H    -1.934498  -1.532769  -1.430935
H    -2.998318  -2.957667  -1.455295
N    -4.561914  -0.091514  2.334652
C    -5.461981  0.487991  3.335758
H    -4.984822  -0.544291  1.527928
H    -6.490740  0.254608  3.050043
H    -5.342760  1.577721  3.374693
H    -5.257116  0.062191  4.324445
Sr    -0.788455  1.457823  4.322155
