32
Energy: -103893.539208 eV PBE+vdW (tier 2 basis)
C    -0.204919  -0.168826  -0.129848
C    -0.398457  -0.263662  1.347264
O    0.599572  -0.409304  2.122610
H    0.414838  0.713440  -0.345304
H    -1.143867  -0.087738  -0.686934
H    0.353330  -1.044754  -0.485113
N    -1.639120  -0.178812  1.842123
C    -1.987335  -0.083019  3.272553
C    -1.875284  -1.482526  3.919134
O    -0.750616  -1.830000  4.411362
H    -2.397885  -0.051350  1.175851
H    -1.183575  0.498746  3.749499
C    -3.285219  0.754011  3.444345
C    -3.433122  1.299345  4.883554
C    -4.585279  0.127671  2.908913
C    -3.612888  0.281836  6.012825
H    -3.081017  1.637340  2.815579
H    -4.296952  1.979547  4.873368
H    -2.564396  1.939930  5.103451
H    -4.474847  -0.390587  1.943243
H    -5.324378  0.920883  2.743465
H    -5.060905  -0.562417  3.621845
H    -3.805446  0.806440  6.956239
H    -2.719110  -0.337973  6.178245
H    -4.466154  -0.389974  5.848108
N    -2.915187  -2.292687  3.910953
C    -2.961856  -3.635885  4.485645
H    -3.782136  -1.917242  3.530249
H    -3.245783  -4.358982  3.711766
H    -3.708243  -3.662492  5.289166
H    -1.982030  -3.892435  4.892507
Sr    1.450267  -1.375521  3.991339
