32
Energy: -103893.46176 eV PBE+vdW (tier 2 basis)
C    0.911316  -0.242440  0.337083
C    0.650699  -0.425687  1.799368
O    1.570603  -0.847833  2.554564
H    0.042933  0.112554  -0.227116
H    1.248676  -1.198739  -0.085237
H    1.737337  0.470402  0.209153
N    -0.579184  -0.128830  2.250819
C    -1.216074  -0.204397  3.587558
C    -0.503114  0.644725  4.646904
O    0.669587  0.369106  5.045782
H    -1.217642  0.180044  1.523712
H    -2.178449  0.283862  3.398925
C    -1.648718  -1.620359  4.123301
C    -0.644623  -2.505157  4.902143
C    -2.375232  -2.393982  3.016264
C    0.313940  -3.411916  4.112904
H    -2.406001  -1.346388  4.877475
H    -1.254065  -3.169962  5.531623
H    -0.121048  -1.882897  5.653964
H    -2.805263  -3.319327  3.419352
H    -1.707787  -2.669597  2.189491
H    -3.205505  -1.810699  2.596611
H    0.880665  -2.905256  3.312478
H    -0.232712  -4.203999  3.586533
H    1.000034  -3.951471  4.788174
N    -1.158306  1.660622  5.196472
C    -2.504248  2.168105  4.902059
H    -0.634705  2.145881  5.925329
H    -2.683570  3.031536  5.548579
H    -3.272485  1.416409  5.120960
H    -2.584728  2.503602  3.861032
Sr    2.314597  -1.196536  4.673091
