28
Energy: -105868.187939 eV PBE+vdW (tier 2 basis)
N    -0.008033  0.548681  0.299688
C    0.055104  -0.240728  1.533406
C    1.494426  -0.270846  2.051792
O    2.301598  -1.232797  1.756545
H    0.749799  0.336665  -0.349725
H    0.661597  -2.120604  -0.305810
H    -0.515392  0.311388  2.292542
C    -0.609624  -1.625158  1.400488
C    -0.340397  -2.406133  0.075430
C    -0.265904  -3.882604  0.269525
C    -1.374806  -2.294346  -1.028072
N    -1.064158  -4.492388  -0.563490
C    -1.775088  -3.591896  -1.390662
C    -1.962058  -1.213376  -1.670816
C    -2.716495  -3.881897  -2.370395
C    -2.917477  -1.474967  -2.663288
C    -3.286252  -2.781537  -3.011691
H    -1.694628  -1.485331  1.478896
H    -0.309553  -2.239748  2.260498
H    0.353219  -4.432048  0.974777
H    -1.167359  -5.508056  -0.617047
H    -1.695630  -0.194512  -1.395667
H    -2.998448  -4.902563  -2.625392
H    -3.391161  -0.638487  -3.175422
H    -4.031919  -2.942252  -3.788378
O    1.912565  0.730324  2.742196
H    0.014545  1.549556  0.491274
Sr    4.022527  -0.154338  2.958798
