28
Energy: -105868.418783 eV PBE+vdW (tier 2 basis)
N    -0.891017  0.269430  0.883035
C    0.208571  -0.250559  1.687432
C    1.535419  0.377074  1.274885
O    1.535809  1.527765  0.704972
H    -1.767714  0.244409  1.403579
H    -0.719093  1.240462  0.618594
H    0.136123  0.061037  2.754453
C    0.217043  -1.785701  1.733663
C    0.371570  -2.528076  0.369114
C    -0.696365  -2.207676  -0.627826
C    0.216384  -4.025441  0.521652
N    -1.362620  -3.291547  -0.928119
C    -0.870965  -4.440871  -0.261098
C    0.897868  -4.967750  1.279650
C    -1.323989  -5.751412  -0.337488
C    0.466186  -6.299602  1.220896
C    -0.623904  -6.685090  0.428911
H    -0.721908  -2.116631  2.198563
H    1.028844  -2.129249  2.386544
H    -0.932209  -1.238778  -1.055035
H    -2.140006  -3.315162  -1.590621
H    1.748600  -4.692816  1.902171
H    -2.171632  -6.041723  -0.956648
H    0.990579  -7.055275  1.803921
H    -0.930853  -7.729352  0.409349
O    2.643359  -0.197705  1.576178
H    1.351376  -2.257625  -0.065982
Sr    3.841545  1.721863  0.983255
