28
Energy: -105868.619697 eV PBE+vdW (tier 2 basis)
N    0.774442  -1.595811  0.364296
C    0.464003  -1.786395  1.753692
C    -0.931340  -2.365286  1.911803
O    -1.308394  -3.003223  2.923837
H    1.773963  -1.499532  0.199795
H    0.286270  -0.816282  -0.074135
H    1.144174  -2.552274  2.156737
C    0.614867  -0.505865  2.687170
C    0.660603  -0.788049  4.154691
C    1.781541  -1.139294  4.885023
C    -0.436507  -0.828555  5.082049
N    1.437048  -1.440166  6.185839
C    0.086725  -1.273785  6.350632
C    -1.819486  -0.541653  4.984383
C    -0.745414  -1.523608  7.455130
C    -2.646044  -0.783358  6.086004
C    -2.117767  -1.291292  7.302686
H    -0.175231  0.217666  2.440650
H    1.559662  -0.046591  2.368825
H    2.820014  -1.189413  4.571143
H    2.101134  -1.652061  6.924791
H    -2.238600  -0.134901  4.063660
H    -0.340546  -1.861207  8.409849
H    -3.708722  -0.548637  6.026559
H    -2.783892  -1.451834  8.149667
O    -1.742781  -2.111601  0.915336
H    -2.621894  -2.522490  1.052702
Sr    -1.662829  -3.340502  5.203186
