28
Energy: -105868.3893 eV PBE+vdW (tier 2 basis)
N    -1.161033  0.511591  0.651279
C    -0.334431  -0.020171  1.789771
C    1.115707  -0.141222  1.283116
O    1.365178  -0.216017  0.098281
H    -0.849747  1.485291  0.531161
H    -0.731330  0.065232  -0.181614
H    -0.384909  0.698752  2.618173
C    -0.789955  -1.415127  2.294052
C    -2.242981  -1.477102  2.638976
C    -2.859717  -1.124501  3.827459
C    -3.300759  -1.839275  1.736674
N    -4.229933  -1.193947  3.691453
C    -4.546378  -1.597608  2.415289
C    -3.326112  -2.238425  0.376064
C    -5.780213  -1.649127  1.744884
C    -4.553757  -2.278953  -0.288638
C    -5.764362  -1.963834  0.382570
H    -0.171372  -1.661268  3.167074
H    -0.553388  -2.171834  1.531386
H    -2.417348  -0.835346  4.776352
H    -4.893892  -1.049508  4.447154
H    -2.405260  -2.500425  -0.146957
H    -6.720693  -1.455621  2.261750
H    -4.592553  -2.586197  -1.333572
H    -6.705431  -2.015153  -0.163485
O    1.989893  -0.195064  2.288933
H    2.893640  -0.313865  1.926952
Sr    -3.769133  0.482801  0.542705
