28
Energy: -105869.178055 eV PBE+vdW (tier 2 basis)
N    -0.729146  0.487032  -0.048776
C    -0.813287  0.454244  1.420878
C    0.335449  1.373392  1.891315
O    0.515414  1.704007  3.088297
H    -1.497544  0.995892  -0.486180
H    -0.673109  -0.437275  -0.476921
H    -1.755670  0.887860  1.785597
C    -0.678876  -0.997654  1.971064
C    -0.673992  -1.113378  3.464695
C    -1.778549  -1.191613  4.288538
C    0.469059  -1.114229  4.334241
N    -1.392553  -1.188597  5.611246
C    -0.024362  -1.136431  5.687445
C    1.867727  -1.100258  4.123526
C    0.835188  -1.068276  6.796673
C    2.724811  -1.048330  5.228267
C    2.213120  -1.013178  6.551655
H    0.232963  -1.451047  1.553039
H    -1.524268  -1.567115  1.560623
H    -2.831201  -1.252270  4.028594
H    -2.023846  -1.314105  6.396837
H    2.280882  -1.138491  3.115053
H    0.451851  -1.091404  7.817352
H    3.803913  -1.066377  5.075640
H    2.904770  -0.993829  7.393260
O    1.106215  1.764203  0.939894
H    0.590903  1.325724  0.105724
Sr    1.360138  1.478501  5.198426
