28
Energy: -105868.218633 eV PBE+vdW (tier 2 basis)
N    -0.029419  -0.469074  0.067909
C    -0.381809  0.227074  1.307183
C    0.580348  1.421225  1.300422
O    1.825794  1.232596  1.555747
H    -0.824255  -0.947547  -0.351183
H    0.729058  -1.137354  0.201360
H    -1.389908  0.642000  1.174179
C    -0.295871  -0.653292  2.565079
C    -0.767073  0.000604  3.901820
C    -2.238523  0.240945  3.979624
C    -0.528802  -0.851322  5.128325
N    -2.736814  -0.362486  5.025277
C    -1.757913  -1.052380  5.776990
C    0.613905  -1.428713  5.663521
C    -1.920358  -1.799588  6.937463
C    0.481805  -2.188724  6.833660
C    -0.759873  -2.371604  7.459495
H    0.748269  -0.962753  2.714010
H    -0.878814  -1.568079  2.390001
H    -2.867806  0.819681  3.307590
H    -3.726987  -0.336830  5.279640
H    1.590832  -1.300055  5.199011
H    -2.889633  -1.934395  7.415497
H    1.366487  -2.650154  7.270156
H    -0.820705  -2.969769  8.366992
O    0.163843  2.563090  0.893864
H    -0.263650  0.982479  4.005220
Sr    2.331048  3.139039  0.307030
