28
Energy: -105868.265118 eV PBE+vdW (tier 2 basis)
N    -0.294278  0.612086  0.460036
C    0.011270  -0.270614  1.572865
C    1.517394  -0.310525  1.817927
O    2.073102  -1.326311  2.374471
H    0.356072  1.398011  0.437216
H    0.675138  -2.174935  -0.215282
H    -0.359842  0.119135  2.550096
C    -0.644296  -1.656734  1.446398
C    -0.346226  -2.437566  0.121763
C    -0.377793  -3.906866  0.377340
C    -1.325619  -2.307970  -1.029852
N    -1.223508  -4.492365  -0.425722
C    -1.840082  -3.584260  -1.317521
C    -1.747180  -1.235502  -1.803522
C    -2.767921  -3.855761  -2.315220
C    -2.683343  -1.477897  -2.818652
C    -3.190752  -2.760164  -3.068390
H    -1.732215  -1.536974  1.530435
H    -0.326055  -2.256167  2.309028
H    0.177700  -4.465190  1.127421
H    -1.418941  -5.495727  -0.418126
H    -1.351470  -0.238728  -1.622967
H    -3.140916  -4.860906  -2.507219
H    -3.024906  -0.646227  -3.433490
H    -3.917678  -2.907141  -3.865288
O    2.212931  0.732600  1.537499
H    -1.233935  0.998038  0.553374
Sr    4.070350  -0.116340  2.628380
