28
Energy: -105869.1992 eV PBE+vdW (tier 2 basis)
N    -0.287807  0.131433  -0.001550
C    -0.662106  -0.000578  1.458478
C    0.586232  0.580933  2.192843
O    0.410871  0.931842  3.417692
H    -0.521960  -0.688110  -0.573462
H    0.773251  0.267458  0.086807
H    -1.541164  0.623581  1.652481
C    -0.942157  -1.495324  1.786893
C    -0.738551  -1.891366  3.218589
C    0.190497  -2.810840  3.659020
C    -1.398284  -1.395732  4.394218
N    0.171500  -2.892689  5.032716
C    -0.779260  -2.034380  5.525976
C    -2.425196  -0.453499  4.629682
C    -1.125348  -1.712977  6.848879
C    -2.774903  -0.136833  5.946429
C    -2.122498  -0.750881  7.045860
H    -0.262294  -2.112284  1.179934
H    -1.965006  -1.735163  1.457858
H    0.880055  -3.422541  3.085017
H    0.713582  -3.554049  5.580082
H    -2.953462  0.016071  3.799994
H    -0.656734  -2.212647  7.697314
H    -3.584492  0.567881  6.135333
H    -2.432710  -0.502320  8.060159
O    1.625365  0.647174  1.534999
H    -0.689674  0.963898  -0.448443
Sr    -0.051743  0.871945  5.593203
