28
Energy: -105868.602945 eV PBE+vdW (tier 2 basis)
N    -0.280198  1.195938  0.314689
C    -0.040338  0.936530  1.784880
C    1.104747  -0.070534  1.895640
O    1.392533  -0.556213  3.034381
H    -1.118485  0.633889  0.008946
H    0.545740  0.887402  -0.224617
H    0.327528  1.870558  2.238307
C    -1.351580  0.479685  2.475066
C    -2.068415  -0.562789  1.680269
C    -2.024814  -1.935797  1.849844
C    -2.918690  -0.315267  0.536878
N    -2.779788  -2.542141  0.878390
C    -3.340128  -1.588169  0.053367
C    -3.409735  0.849672  -0.096771
C    -4.192223  -1.727290  -1.044868
C    -4.253760  0.709830  -1.191186
C    -4.632398  -0.563314  -1.663305
H    -1.984504  1.367352  2.621195
H    -1.081252  0.124823  3.477359
H    -1.554809  -2.520199  2.634283
H    -2.977187  -3.534970  0.831690
H    -3.192980  1.846593  0.295340
H    -4.513274  -2.707051  -1.396723
H    -4.654664  1.597215  -1.678492
H    -5.302622  -0.634655  -2.518269
O    1.786603  -0.363954  0.847200
H    -0.475969  2.183201  0.114474
Sr    3.261668  -1.683342  2.179037
