28
Energy: -105868.689539 eV PBE+vdW (tier 2 basis)
N    -0.164683  -0.696431  0.201639
C    0.442290  -1.104066  1.459922
C    0.818730  0.049723  2.391570
O    0.856850  1.251500  1.944499
H    -1.177438  -0.600148  0.262520
H    0.217126  0.190450  -0.133599
H    -0.266587  -1.739477  2.010927
C    1.700810  -1.949801  1.153089
C    1.335765  -3.072416  0.171506
C    0.688118  -2.614944  -1.102491
C    0.376074  -4.146898  0.634392
N    -0.311877  -3.412696  -1.403931
C    -0.589737  -4.337199  -0.363817
C    0.338902  -4.938984  1.774594
C    -1.597355  -5.288681  -0.291844
C    -0.674741  -5.900381  1.879560
C    -1.623166  -6.073920  0.864192
H    2.118939  -2.375076  2.073695
H    2.477786  -1.313490  0.702428
H    1.090341  -1.915212  -1.828355
H    -0.842077  -3.361177  -2.272684
H    1.080014  -4.832357  2.566387
H    -2.326602  -5.426759  -1.088951
H    -0.721434  -6.532976  2.764617
H    -2.392362  -6.836754  0.972399
O    1.109899  -0.206253  3.613509
H    2.287289  -3.552689  -0.138580
Sr    1.438127  2.053110  4.071809
