28
Energy: -105869.230812 eV PBE+vdW (tier 2 basis)
N    -1.028462  1.388623  2.632695
C    -0.220723  0.161012  2.392910
C    -0.187933  -0.061011  0.887303
O    -1.119916  0.288940  0.147559
H    -1.136785  1.511781  3.644143
H    -0.487178  2.206124  2.330916
H    0.814181  0.256153  2.752185
C    -0.869416  -1.064922  3.119425
C    -2.348067  -1.201415  2.887867
C    -3.340543  -0.640420  3.678150
C    -3.025495  -1.858677  1.784800
N    -4.582794  -0.846992  3.095956
C    -4.426491  -1.631446  1.951339
C    -2.588341  -2.614370  0.673479
C    -5.387452  -2.119497  1.053730
C    -3.537069  -3.101877  -0.211198
C    -4.917034  -2.855567  -0.026159
H    -0.670520  -0.940690  4.193076
H    -0.334481  -1.975026  2.817291
H    -3.261375  -0.127322  4.632416
H    -5.464403  -0.728269  3.589720
H    -1.531947  -2.838812  0.529494
H    -6.453994  -1.961695  1.211642
H    -3.219773  -3.704452  -1.060978
H    -5.630062  -3.270283  -0.737318
O    0.892027  -0.677019  0.466106
H    0.862725  -0.814439  -0.505955
Sr    -3.231676  0.872568  1.197410
