28
Energy: -105868.284865 eV PBE+vdW (tier 2 basis)
N    -0.630480  -1.403685  1.955569
C    0.623927  -1.403204  1.227487
C    1.666242  -0.581576  1.990752
O    2.731086  -0.176497  1.398711
H    -0.470442  -1.334218  2.960185
H    -0.263157  -1.224171  -2.170516
H    1.106210  -2.407793  1.159377
C    0.473613  -0.855272  -0.209930
C    -0.295327  -1.765579  -1.197366
C    0.320711  -3.084326  -1.515135
C    -1.736589  -2.143486  -0.938527
N    -0.593392  -4.018858  -1.501979
C    -1.874564  -3.524100  -1.160984
C    -2.860046  -1.401669  -0.597986
C    -3.075950  -4.217639  -1.065250
C    -4.083014  -2.074504  -0.489335
C    -4.191062  -3.454848  -0.719088
H    1.469645  -0.659028  -0.628189
H    -0.060702  0.102954  -0.160548
H    1.354413  -3.297410  -1.778463
H    -0.414088  -4.995671  -1.744530
H    -2.797884  -0.331592  -0.409011
H    -3.150748  -5.287364  -1.255570
H    -4.976219  -1.512386  -0.220533
H    -5.162004  -3.939060  -0.629646
O    1.480463  -0.328766  3.234343
H    -1.185952  -2.237393  1.778997
Sr    3.480312  0.850141  3.356168
