28
Energy: -105867.208138 eV PBE+vdW (tier 2 basis)
N    0.812765  -1.526375  0.116160
C    0.095280  -0.538906  0.898098
C    0.890542  0.463913  1.765984
O    0.354161  1.191829  2.573718
H    1.242380  -1.113414  -0.710447
H    1.566648  -1.957115  0.653744
H    -0.462713  0.102342  0.195245
C    -0.938714  -1.243938  1.822451
C    -2.037220  -1.851104  1.019002
C    -1.966293  -3.010151  0.255953
C    -3.310548  -1.267596  0.719322
N    -3.135911  -3.192736  -0.453640
C    -3.993213  -2.153625  -0.206154
C    -3.966325  -0.074312  1.123113
C    -5.307995  -1.911081  -0.635956
C    -5.276833  0.164027  0.690754
C    -5.952593  -0.756658  -0.157855
H    -1.322777  -0.504546  2.536919
H    -0.412668  -2.015324  2.402997
H    -1.141519  -3.707859  0.156327
H    -3.291044  -3.940220  -1.124953
H    -3.452199  0.651633  1.755751
H    -5.813562  -2.578598  -1.335444
H    -5.783107  1.084151  0.983696
H    -6.963333  -0.531085  -0.496670
O    2.207124  0.440173  1.497195
H    2.640841  1.119107  2.054147
Sr    -5.417125  -2.154195  2.238875
