28
Energy: -105868.505866 eV PBE+vdW (tier 2 basis)
N    -1.365640  1.963977  2.333830
C    -0.090937  1.286136  2.438111
C    0.911911  1.604557  1.322229
O    2.163835  1.411534  1.528149
H    -1.351166  2.904169  2.723455
H    -1.699878  2.020436  1.370971
H    0.399062  1.588263  3.373921
C    -0.312916  -0.255926  2.479324
C    -1.403885  -0.590404  3.523446
C    -2.180018  -1.819052  3.264790
C    -1.037840  -0.740364  4.978280
N    -2.298986  -2.521986  4.363624
C    -1.626611  -1.925820  5.454097
C    -0.309446  0.040936  5.868372
C    -1.532279  -2.378948  6.764198
C    -0.188765  -0.395966  7.192854
C    -0.790045  -1.582541  7.635596
H    0.623541  -0.780374  2.704791
H    -0.658574  -0.587189  1.488298
H    -2.640978  -2.136725  2.332287
H    -2.829817  -3.391730  4.432516
H    0.158186  0.975260  5.563174
H    -2.010723  -3.298673  7.097986
H    0.382468  0.203211  7.900415
H    -0.679652  -1.885894  8.675194
O    0.496277  2.059680  0.196952
H    -2.119162  0.274882  3.394955
Sr    2.694039  2.298551  -0.557818
