28
Energy: -105869.114499 eV PBE+vdW (tier 2 basis)
N    -1.005543  0.885247  1.365093
C    -0.209444  -0.055509  2.196132
C    1.037364  -0.431364  1.395973
O    1.076610  -0.316830  0.164999
H    -0.616565  1.827976  1.472306
H    -1.952733  0.936355  1.752670
H    0.118935  0.417689  3.136095
C    -1.053824  -1.334918  2.585597
C    -2.096297  -1.672862  1.566896
C    -3.437880  -1.350630  1.653966
C    -1.894388  -2.182037  0.233705
N    -4.059790  -1.573893  0.447233
C    -3.144771  -2.046277  -0.460659
C    -0.790627  -2.735534  -0.460413
C    -3.267342  -2.303959  -1.835635
C    -0.913358  -2.990447  -1.827605
C    -2.130510  -2.747089  -2.513790
H    -1.538402  -1.123364  3.547051
H    -0.370193  -2.176521  2.767666
H    -4.003137  -0.976509  2.502927
H    -5.055692  -1.467077  0.279231
H    0.142856  -2.962094  0.054195
H    -4.217772  -2.184271  -2.355854
H    -0.073503  -3.421293  -2.372201
H    -2.195100  -2.964824  -3.579051
O    2.086879  -0.928752  2.013957
H    2.002530  -0.931530  2.988192
Sr    -0.854301  -0.034685  -1.213674
