28
Energy: -105867.913335 eV PBE+vdW (tier 2 basis)
N    0.101964  -0.303771  1.257970
C    0.660278  0.270715  2.530627
C    2.208630  0.402976  2.403067
O    2.597478  0.737275  1.187578
H    0.262899  -1.317808  1.268176
H    -0.917926  -0.203606  1.267249
H    0.293520  1.309964  2.575189
C    0.188876  -0.399596  3.837797
C    0.560906  -1.835742  4.094658
C    1.870662  -2.339057  4.307812
C    -0.303407  -2.908922  4.339860
N    1.817359  -3.643286  4.639284
C    0.493694  -4.047381  4.682521
C    -1.780742  -3.041908  4.383380
C    -0.037308  -5.272373  5.016785
C    -2.281689  -4.396864  4.733097
C    -1.454432  -5.439714  5.030215
H    -0.904220  -0.296267  3.902821
H    0.597819  0.215389  4.653495
H    2.809616  -1.795421  4.252637
H    2.622475  -4.222237  4.860759
H    -2.256432  -2.722245  3.436995
H    0.608189  -6.111792  5.281464
H    -3.363113  -4.533308  4.761309
H    -1.866219  -6.412037  5.294723
O    2.932781  0.241266  3.364206
H    -2.209759  -2.328903  5.117936
Sr    1.523100  0.823654  -0.681608
