28
Energy: -105868.677214 eV PBE+vdW (tier 2 basis)
N    0.392089  -1.187899  0.250687
C    0.199041  -0.094668  1.263910
C    1.476683  0.129061  2.038581
O    1.577713  1.174125  2.761577
H    0.602102  -0.839319  -0.690971
H    -0.536264  -1.705147  0.235869
H    -0.085704  0.820044  0.731327
C    -0.987924  -0.528817  2.209063
C    -2.097403  -1.100504  1.398672
C    -2.495258  -2.436909  1.364139
C    -2.954401  -0.387760  0.480925
N    -3.541077  -2.572089  0.497758
C    -3.851372  -1.344980  -0.066267
C    -3.063573  0.958044  0.086707
C    -4.838044  -1.003671  -0.993923
C    -4.042652  1.300977  -0.837035
C    -4.915465  0.331588  -1.371463
H    -1.288126  0.369185  2.765212
H    -0.619346  -1.264260  2.939216
H    -2.139606  -3.282056  1.946177
H    -4.041670  -3.436609  0.324764
H    -2.425263  1.731558  0.517079
H    -5.524710  -1.746156  -1.398461
H    -4.152207  2.339252  -1.146271
H    -5.675350  0.638672  -2.088217
O    2.406506  -0.759818  2.006399
H    1.157087  -1.812090  0.552354
Sr    3.688076  0.542509  3.544400
