28
Energy: -105868.269933 eV PBE+vdW (tier 2 basis)
N    -0.846178  0.469843  0.277205
C    -0.105964  -0.047182  1.440679
C    1.313355  0.522340  1.440511
O    1.522217  1.652150  2.015245
H    -1.251515  1.385077  0.469857
H    -0.254586  0.564901  -0.549129
H    -0.585616  0.367845  2.336608
C    -0.175403  -1.583100  1.567136
C    -0.050446  -2.417363  0.255271
C    -1.296866  -2.391352  -0.569876
C    0.128096  -3.901305  0.492544
N    -1.747818  -3.603846  -0.740552
C    -0.931470  -4.583413  -0.124267
C    1.088425  -4.635430  1.174320
C    -1.094614  -5.962649  -0.104508
C    0.951542  -6.029505  1.213794
C    -0.118911  -6.682172  0.587044
H    -1.128238  -1.841823  2.048013
H    0.614919  -1.930149  2.246331
H    -1.811727  -1.515978  -0.956219
H    -2.597933  -3.826065  -1.263043
H    1.931711  -4.152494  1.666700
H    -1.929527  -6.459565  -0.596594
H    1.694992  -6.622906  1.744061
H    -0.192079  -7.767009  0.639931
O    2.275469  -0.078443  0.827267
H    0.783517  -2.009430  -0.346797
Sr    3.758652  1.641022  1.454466
