28
Energy: -105867.926209 eV PBE+vdW (tier 2 basis)
N    1.421121  -0.186230  1.018597
C    0.375374  0.013865  2.084681
C    1.155666  0.339562  3.375579
O    2.130687  1.132716  3.259960
H    1.737751  -1.165758  1.126678
H    0.936851  -0.180204  0.113513
H    -0.138560  0.963906  1.849216
C    -0.670384  -1.117383  2.116618
C    -0.126563  -2.417031  2.613896
C    0.610585  -3.377788  1.933828
C    -0.231711  -2.868889  3.972662
N    0.986627  -4.366743  2.808764
C    0.497844  -4.086561  4.069609
C    -0.885583  -2.361813  5.119191
C    0.616900  -4.786689  5.271647
C    -0.753909  -3.056064  6.320253
C    -0.005927  -4.246185  6.393155
H    -1.086615  -1.202492  1.100439
H    -1.516705  -0.791409  2.739586
H    0.821144  -3.477677  0.872637
H    1.467690  -5.219757  2.547642
H    -1.575079  -1.513429  5.061566
H    1.167327  -5.724798  5.334186
H    -1.266252  -2.693771  7.209973
H    0.066031  -4.769797  7.344925
O    0.855619  -0.074555  4.554750
H    0.234499  -0.873504  4.632525
Sr    3.326349  1.547336  1.386554
