28
Energy: -105867.332366 eV PBE+vdW (tier 2 basis)
N    -0.200178  -1.085041  0.197722
C    0.002011  -0.348833  1.442325
C    1.495471  -0.286745  1.767926
O    2.342215  -0.911243  1.166869
H    -0.755923  -0.542068  -0.460933
H    0.711830  -1.260132  -0.233632
H    -0.367106  0.686254  1.376605
C    -0.767319  -1.008600  2.635596
C    -0.155030  -2.299314  3.085757
C    0.578305  -2.486134  4.246851
C    -0.065368  -3.544059  2.372189
N    1.083343  -3.768055  4.307452
C    0.726824  -4.451952  3.176694
C    -0.542752  -3.989842  1.113313
C    1.000710  -5.770233  2.766426
C    -0.273665  -5.305666  0.711091
C    0.484419  -6.190139  1.530899
H    -1.802430  -1.156575  2.297487
H    -0.798593  -0.307628  3.479264
H    0.790953  -1.775610  5.040228
H    1.712000  -4.106401  5.030896
H    -1.053519  -3.272439  0.465424
H    1.623033  -6.437300  3.364702
H    -0.612870  -5.650831  -0.266016
H    0.711832  -7.193819  1.171953
O    1.739726  0.511430  2.828787
H    2.709678  0.553547  2.954535
Sr    -1.857778  -5.598198  2.953416
