28
Energy: -105868.002318 eV PBE+vdW (tier 2 basis)
N    1.131016  0.433235  0.910488
C    0.914338  -0.438055  2.124166
C    2.031595  -0.204484  3.173346
O    3.195011  0.140646  2.663373
H    0.749384  -0.044523  0.086738
H    0.530722  1.258824  1.007837
H    -0.035319  -0.155893  2.596950
C    0.843909  -1.916594  1.680460
C    0.776682  -2.968946  2.756902
C    1.429614  -4.212217  2.648942
C    0.066851  -3.013376  3.968137
N    1.152386  -4.986032  3.719951
C    0.318408  -4.283390  4.569288
C    -0.745701  -2.034267  4.715583
C    -0.206000  -4.661008  5.789790
C    -1.306740  -2.514505  5.992843
C    -1.034799  -3.755048  6.503467
H    1.723008  -2.133009  1.051719
H    -0.037159  -2.022031  1.023511
H    2.070062  -4.579321  1.852084
H    1.504870  -5.925555  3.874542
H    -1.536730  -1.562380  4.105865
H    0.010587  -5.644140  6.211429
H    -1.943540  -1.825820  6.548742
H    -1.449728  -4.061347  7.461901
O    1.792106  -0.360591  4.358249
H    -0.064669  -1.170528  4.945359
Sr    3.654837  1.211356  0.839333
