29
Energy: -609841.500593 eV PBE+vdW (tier 2 basis)
C    -1.231192  -1.122464  0.354084
C    -0.878407  -0.648310  1.723996
O    0.343820  -0.613400  2.063997
H    -0.624832  -0.581869  -0.383924
H    -2.292836  -1.010501  0.110788
H    -0.957382  -2.185721  0.278279
N    -1.878230  -0.300724  2.549994
C    -1.870563  0.136521  3.964628
C    -1.046819  1.425216  4.163622
O    0.219099  1.383454  4.305716
H    -2.805528  -0.371748  2.139406
H    -2.922045  0.391869  4.143648
C    -1.474958  -0.923806  5.037847
C    -1.551058  -2.397828  4.630829
C    -0.380002  -2.979696  3.885951
O    -0.394607  -3.803500  3.024457
O    0.887449  -2.496998  4.382623
H    -2.156636  -0.766202  5.883617
H    -0.481936  -0.704214  5.450809
H    -2.452986  -2.640849  4.056585
H    -1.614203  -2.997054  5.555507
N    -1.700056  2.570680  4.224339
C    -1.092801  3.889198  4.429051
H    -2.712710  2.544008  4.123467
H    -0.064492  3.765967  4.775478
H    -1.676302  4.433302  5.179679
H    -1.103493  4.453069  3.487512
H    1.533046  -3.169989  4.072924
Pb    1.791656  -0.167410  3.726088
