29
Energy: -609841.049848 eV PBE+vdW (tier 2 basis)
C    0.310198  0.058062  0.706898
C    -0.108441  0.088664  2.134269
O    0.824027  0.040378  3.044462
H    0.885430  -0.854616  0.500468
H    0.997365  0.900288  0.536508
H    -0.526425  0.138391  0.007398
N    -1.358843  0.180246  2.527592
C    -2.632407  0.024971  1.827654
C    -3.642309  0.550773  2.898715
O    -3.231960  0.608677  4.070743
H    -1.614258  0.346593  3.536737
H    -2.663509  0.629157  0.912266
C    -2.904137  -1.462982  1.486465
C    -2.770663  -2.444995  2.688257
C    -1.350733  -2.645514  3.137151
O    -0.917458  -2.216841  4.227894
O    -0.479665  -3.266041  2.354208
H    -2.244429  -1.767830  0.660227
H    -3.927111  -1.556670  1.099947
H    -3.176218  -3.421573  2.379954
H    -3.351541  -2.101697  3.552372
N    -4.886871  0.866323  2.531677
C    -5.490613  0.880792  1.200705
H    -5.478558  1.157718  3.309449
H    -4.726469  0.940204  0.419264
H    -6.125871  1.768418  1.109050
H    -6.111442  -0.009940  1.034335
H    -0.892495  -3.662850  1.560907
Pb    1.091372  -1.219833  4.829733
