29
Energy: -609841.383605 eV PBE+vdW (tier 2 basis)
C    -0.161701  -0.240716  0.023566
C    0.005677  -0.175031  1.503569
O    1.159554  -0.427552  1.997280
H    0.561254  0.434240  -0.454376
H    -1.173208  0.009076  -0.312623
H    0.087331  -1.258491  -0.310816
N    -1.053242  0.131434  2.257293
C    -1.214479  0.122197  3.728350
C    -0.422271  1.260447  4.378847
O    0.841604  1.150033  4.613485
H    -1.911377  0.306537  1.738825
H    -2.277755  0.329517  3.902168
C    -0.967416  -1.256471  4.371878
C    -1.358270  -1.351779  5.855103
C    -2.826198  -1.054564  6.131468
O    -3.498563  -0.259383  5.491841
O    -3.272796  -1.751082  7.176472
H    0.081994  -1.581536  4.269633
H    -1.549082  -1.983665  3.787525
H    -0.770312  -0.655820  6.476811
H    -1.121804  -2.355575  6.228626
N    -1.027264  2.370615  4.744135
C    -2.444418  2.746167  4.616061
H    -0.407729  3.067877  5.162930
H    -2.624571  3.587196  5.291444
H    -3.094052  1.913797  4.908121
H    -2.662962  3.070730  3.590746
H    -4.207339  -1.509008  7.347783
Pb    2.479494  -0.080679  3.749068
