29
Energy: -609840.924715 eV PBE+vdW (tier 2 basis)
C    1.667969  -0.957877  1.648053
C    0.740000  -0.900081  2.809495
O    1.219026  -1.110383  4.001968
H    2.137988  -1.951023  1.612640
H    2.474717  -0.224631  1.785414
H    1.159985  -0.764905  0.697960
N    -0.536360  -0.656893  2.627182
C    -1.591459  -0.596536  3.634312
C    -2.884133  -0.792956  2.780467
O    -2.829101  -0.408332  1.611758
H    -0.937496  -0.493745  1.683207
H    -1.429481  -1.401055  4.363545
C    -1.591335  0.804738  4.306590
C    -2.346040  0.912560  5.631169
C    -1.703025  0.200434  6.790863
O    -0.562432  -0.311800  6.740922
O    -2.330717  0.099078  7.937259
H    -2.023049  1.523269  3.596732
H    -0.551257  1.127513  4.457810
H    -3.390911  0.575424  5.542701
H    -2.418209  1.975807  5.922686
N    -3.999407  -1.295598  3.344836
C    -4.178339  -2.014846  4.600601
H    -4.783759  -1.325952  2.692683
H    -4.473574  -3.054054  4.405898
H    -4.961770  -1.544530  5.209703
H    -3.247692  -2.038150  5.176543
H    -3.210157  0.529264  7.936348
Pb    1.544531  -0.990489  6.137388
