29
Energy: -609841.981266 eV PBE+vdW (tier 2 basis)
C    0.845913  1.205215  -1.100303
C    0.013506  0.821997  0.080633
O    0.265190  -0.259555  0.694753
H    1.890675  1.321876  -0.780442
H    0.516761  2.123896  -1.596519
H    0.829642  0.377702  -1.823178
N    -0.992077  1.645264  0.423621
C    -2.056488  1.533863  1.439209
C    -1.533211  1.617827  2.882125
O    -0.384236  1.192864  3.221947
H    -1.067202  2.473858  -0.160612
H    -2.618437  2.467097  1.297045
C    -3.128373  0.442266  1.153966
C    -2.777416  -1.067250  1.135187
C    -2.564304  -1.672374  2.500222
O    -1.479107  -1.644604  3.107437
O    -3.568082  -2.243893  3.133797
H    -3.523609  0.675559  0.155944
H    -3.963607  0.618323  1.847695
H    -1.882720  -1.257098  0.532804
H    -3.612131  -1.581482  0.638069
N    -2.293450  2.195832  3.804333
C    -3.598722  2.852725  3.700882
H    -1.870145  2.191151  4.734331
H    -4.404244  2.162729  3.984090
H    -3.781553  3.231011  2.690438
H    -3.610717  3.704305  4.389087
H    -4.380063  -2.297164  2.592960
Pb    0.687597  -0.796510  2.875727
