29
Energy: -609841.07601 eV PBE+vdW (tier 2 basis)
C    0.243094  -0.302954  0.297737
C    0.179609  0.022114  1.750317
O    1.282558  0.104568  2.436093
H    0.752630  -1.270382  0.178190
H    0.850230  0.444082  -0.232690
H    -0.746690  -0.362576  -0.165491
N    -0.985704  0.199266  2.330082
C    -1.313230  0.356058  3.748751
C    -2.867124  0.176107  3.737696
O    -3.440218  0.361242  2.653853
H    -1.882117  0.148009  1.795086
H    -0.813765  -0.436378  4.322257
C    -0.938250  1.730118  4.357217
C    -1.350070  2.950463  3.526125
C    -0.421207  3.325015  2.401900
O    0.810705  3.094042  2.413662
O    -0.869101  3.986621  1.364323
H    0.140517  1.762484  4.579366
H    -1.420857  1.802574  5.340139
H    -1.376872  3.841351  4.179246
H    -2.372253  2.836327  3.133626
N    -3.504615  -0.123032  4.875036
C    -2.964028  -0.423308  6.198544
H    -4.517225  -0.177475  4.767238
H    -3.531908  -1.252719  6.633939
H    -3.044679  0.441702  6.871167
H    -1.917492  -0.738770  6.136886
H    -1.829824  4.169246  1.410314
Pb    2.590844  1.778361  2.936964
