29
Energy: -609841.568473 eV PBE+vdW (tier 2 basis)
C    -1.271453  2.255312  2.065960
C    -0.310585  1.211325  1.629357
O    0.920945  1.635578  1.485905
H    -1.801974  1.950348  2.977897
H    -2.016163  2.446703  1.279249
H    -0.729802  3.185012  2.262565
N    -0.624700  -0.044228  1.392187
C    -1.969817  -0.630509  1.432589
C    -2.052724  -1.715973  2.531231
O    -1.049836  -2.410091  2.876340
H    0.109392  -0.713071  1.080823
H    -2.669901  0.164826  1.708806
C    -2.409531  -1.172459  0.030396
C    -1.313433  -1.812123  -0.864285
C    -0.484595  -2.777434  -0.065516
O    -0.933317  -3.932261  0.222480
O    0.616921  -2.357914  0.470173
H    -2.846407  -0.337104  -0.531153
H    -3.214251  -1.902274  0.188986
H    -0.661840  -1.045874  -1.300995
H    -1.813307  -2.341011  -1.684977
N    -3.229253  -1.899965  3.118301
C    -4.488014  -1.170691  2.917209
H    -3.236173  -2.644362  3.815771
H    -5.228462  -1.585941  3.606078
H    -4.867169  -1.292783  1.895704
H    -4.372537  -0.104598  3.151376
H    1.558515  0.963642  1.167436
Pb    0.428894  -4.075685  2.100331
