29
Energy: -609841.6976 eV PBE+vdW (tier 2 basis)
C    -1.724368  -1.766883  0.663046
C    -0.805280  -0.892473  1.444422
O    0.463544  -0.966561  1.196853
H    -1.581355  -1.554588  -0.406494
H    -2.775528  -1.617102  0.926831
H    -1.449946  -2.819735  0.814313
N    -1.316943  -0.058518  2.334635
C    -0.626901  1.035326  3.031377
C    0.118993  0.508425  4.274028
O    1.099894  -0.304647  4.122729
H    -2.380402  0.006725  2.381337
H    0.182851  1.397478  2.372843
C    -1.583564  2.235905  3.226329
C    -2.925783  2.081682  3.982549
C    -4.050821  1.409048  3.213875
O    -3.899475  0.449913  2.457867
O    -5.228417  1.951808  3.478028
H    -1.795694  2.626691  2.221210
H    -1.005281  3.032612  3.716643
H    -3.269451  3.078855  4.283755
H    -2.844870  1.504163  4.919465
N    -0.214949  0.915349  5.480521
C    0.428707  0.518355  6.736207
H    -0.987044  1.573298  5.551908
H    -0.273479  -0.074624  7.335516
H    0.705602  1.419587  7.295212
H    1.318623  -0.074823  6.519089
H    -5.933758  1.463429  3.001910
Pb    2.297095  -1.092695  2.386997
