29
Energy: -609841.057041 eV PBE+vdW (tier 2 basis)
C    -0.430292  1.758743  0.248325
C    -1.148118  0.497082  0.596258
O    -1.803902  -0.097669  -0.322797
H    0.282893  1.556646  -0.562591
H    0.097944  2.212064  1.093291
H    -1.161871  2.478031  -0.147300
N    -1.081735  0.063358  1.860087
C    -1.751064  -1.042347  2.590550
C    -1.261391  -2.426428  2.160906
O    -1.310029  -2.827760  0.943945
H    -0.516812  0.656252  2.463531
H    -1.389350  -0.893109  3.614318
C    -3.291852  -0.948845  2.723327
C    -4.208518  -1.319258  1.555272
C    -5.687127  -1.301974  1.994351
O    -6.034687  -1.098396  3.129114
O    -6.480154  -1.548442  0.938443
H    -3.519313  0.077877  3.043074
H    -3.571430  -1.578409  3.580969
H    -4.043187  -2.358891  1.205251
H    -4.133325  -0.613154  0.712736
N    -0.805575  -3.262451  3.075885
C    -0.633073  -3.052733  4.521636
H    -0.539698  -4.178810  2.710312
H    -1.591096  -2.833231  5.007803
H    0.091338  -2.253434  4.720790
H    -0.239868  -3.980352  4.946254
H    -7.414163  -1.535572  1.235743
Pb    -2.368057  -2.166201  -0.923674
