29
Energy: -609840.647231 eV PBE+vdW (tier 2 basis)
C    -1.212384  -0.804631  -0.160664
C    -0.532293  -0.370735  1.116159
O    0.570984  -0.730530  1.460075
H    -1.581816  0.045097  -0.752570
H    -2.060353  -1.474736  0.048396
H    -0.486070  -1.362353  -0.758156
N    -1.230782  0.539383  1.953453
C    -2.619766  0.915649  1.873304
C    -2.854716  2.223582  1.104197
O    -4.058734  2.588748  0.802275
H    -0.746090  0.685857  2.838214
H    -3.157996  0.162582  1.271027
C    -3.266753  0.996254  3.282151
C    -3.852703  -0.330560  3.763300
C    -5.124376  -0.739758  3.065908
O    -5.749013  -0.001723  2.267415
O    -5.650337  -1.916861  3.283775
H    -4.040614  1.777276  3.318105
H    -2.504319  1.329663  3.999383
H    -4.084727  -0.277327  4.841551
H    -3.119977  -1.149659  3.667089
N    -1.814688  2.930561  0.748153
C    -1.802984  4.186517  0.000878
H    -0.919908  2.512139  1.027781
H    -1.315034  4.960133  0.606276
H    -2.825978  4.487572  -0.234015
H    -1.230541  4.049468  -0.924718
H    -5.142268  -2.461995  3.919457
Pb    -6.147284  1.903528  1.064553
