29
Energy: -609840.836489 eV PBE+vdW (tier 2 basis)
C    1.110836  -0.102460  1.103208
C    0.365135  -0.199373  2.401323
O    0.896609  -0.288277  3.502590
H    1.861729  -0.901003  1.064941
H    1.659481  0.849155  1.084559
H    0.466904  -0.160932  0.218759
N    -1.030934  -0.189771  2.322977
C    -1.761235  -0.159941  3.575648
C    -2.838064  -1.233488  3.547074
O    -4.103128  -0.946923  3.507665
H    -1.497205  -0.019483  1.437144
H    -0.975775  -0.484588  4.292734
C    -2.189477  1.262674  4.003875
C    -1.994841  1.588887  5.491057
C    -2.977212  1.006805  6.468743
O    -4.152784  0.689059  6.169018
O    -2.652628  0.851117  7.726125
H    -3.207924  1.519663  3.656112
H    -1.544628  1.955683  3.448893
H    -2.066123  2.682929  5.635201
H    -0.970495  1.324165  5.796797
N    -2.502878  -2.508498  3.499277
C    -1.164305  -3.105266  3.473055
H    -3.288518  -3.153122  3.399973
H    -1.223664  -4.090344  3.945835
H    -0.443456  -2.487641  4.017205
H    -0.826236  -3.223459  2.435308
H    -1.734296  1.124698  7.926591
Pb    -5.602381  0.335983  4.463697
