29
Energy: -609841.664547 eV PBE+vdW (tier 2 basis)
C    -1.585512  -2.021603  0.732396
C    -0.765605  -1.017354  1.463472
O    0.516272  -1.087295  1.394265
H    -2.660780  -1.888441  0.888697
H    -1.288675  -3.033241  1.039632
H    -1.365552  -1.938780  -0.342154
N    -1.369308  -0.050469  2.153433
C    -0.644576  1.013810  2.856634
C    0.023136  0.415168  4.113074
O    1.307432  0.267814  4.114775
H    -2.378835  -0.107297  2.299353
H    0.192629  1.285533  2.197595
C    -1.447951  2.333627  3.003251
C    -2.490374  2.561557  4.113680
C    -3.589816  1.532364  4.196859
O    -3.362702  0.315965  4.193591
O    -4.801119  2.050438  4.293813
H    -1.911942  2.510146  2.021117
H    -0.697161  3.127444  3.116739
H    -2.926270  3.557450  3.970499
H    -2.007288  2.587662  5.104390
N    -0.726525  0.029831  5.113984
C    -0.253589  -0.596730  6.348453
H    -1.754506  0.103854  4.952695
H    0.830714  -0.494367  6.429805
H    -0.534516  -1.658017  6.356195
H    -0.734680  -0.103444  7.200600
H    -5.464829  1.335216  4.400685
Pb    2.456929  -0.621841  2.415474
