29
Energy: -609840.745617 eV PBE+vdW (tier 2 basis)
C    0.686599  -1.092410  -0.114788
C    0.352214  -0.108980  0.937280
O    1.139876  0.917668  1.106613
H    1.521821  -1.703738  0.269398
H    1.059058  -0.579622  -1.009125
H    -0.128366  -1.797034  -0.322539
N    -0.690054  -0.203457  1.761898
C    -1.947752  -0.996164  1.711495
C    -1.708953  -2.541526  1.732112
O    -1.335924  -3.103002  0.704424
H    -0.674062  0.494411  2.504712
H    -2.476803  -0.690330  2.623695
C    -2.814304  -0.644367  0.489422
C    -3.103716  0.869073  0.277476
C    -1.914784  1.643741  -0.202713
O    -1.338453  2.506654  0.497637
O    -1.387469  1.404854  -1.395667
H    -3.784289  -1.141940  0.625498
H    -2.375507  -1.107244  -0.406288
H    -3.473315  1.344261  1.193974
H    -3.899221  0.959961  -0.479972
N    -1.965640  -3.144056  2.906052
C    -1.842594  -4.588381  3.105366
H    -2.291893  -2.587661  3.689325
H    -1.123390  -4.797824  3.906059
H    -1.492724  -5.037564  2.172289
H    -2.816199  -5.015940  3.373261
H    -1.906252  0.766732  -1.926835
Pb    0.933245  3.033098  0.547693
