29
Energy: -609841.738497 eV PBE+vdW (tier 2 basis)
C    0.632122  0.485705  0.493606
C    -0.599094  1.055245  1.108548
O    -1.013684  2.203364  0.753105
H    1.025475  -0.385941  1.025535
H    1.397668  1.274448  0.496015
H    0.449546  0.232964  -0.560643
N    -1.290560  0.402693  2.064707
C    -1.459315  -1.031287  2.343594
C    -1.257598  -1.916245  1.115141
O    -1.795790  -1.661729  -0.035885
H    -1.985344  0.989581  2.527350
H    -0.742373  -1.352397  3.115475
C    -2.893618  -1.213679  2.927385
C    -4.090847  -0.901015  1.985161
C    -3.911174  0.382345  1.206882
O    -4.158003  1.510942  1.728038
O    -3.403269  0.331476  0.012780
H    -2.944316  -0.576283  3.822546
H    -2.999383  -2.245858  3.284522
H    -4.988438  -0.806488  2.609408
H    -4.261100  -1.722924  1.278561
N    -0.553137  -3.014763  1.244491
C    -0.356768  -4.040073  0.211015
H    -0.099218  -3.173760  2.142774
H    -0.491554  -5.025789  0.669424
H    0.662646  -3.965649  -0.188579
H    -1.081104  -3.896410  -0.593489
H    -2.450710  -0.855271  -0.058522
Pb    -3.146103  2.776188  0.000047
