29
Energy: -609840.950054 eV PBE+vdW (tier 2 basis)
C    -0.675080  1.230782  -0.465227
C    -0.871566  0.703940  0.914253
O    -0.097772  1.122974  1.870087
H    -1.394495  0.815181  -1.177554
H    0.343922  0.988066  -0.799059
H    -0.762025  2.325940  -0.460863
N    -1.809550  -0.183818  1.146874
C    -2.104159  -0.940133  2.362470
C    -2.607881  -2.305581  1.770192
O    -2.987344  -2.290385  0.595579
H    -2.328097  -0.641177  0.359693
H    -1.189333  -1.058879  2.958178
C    -3.258656  -0.311170  3.175080
C    -3.009691  1.096020  3.781326
C    -2.063289  1.084077  4.948722
O    -0.859337  1.427609  4.886734
O    -2.465950  0.664185  6.124821
H    -3.549743  -1.015199  3.967295
H    -4.130424  -0.225125  2.511904
H    -3.977617  1.494977  4.121444
H    -2.631241  1.788447  3.020598
N    -2.637212  -3.394569  2.551626
C    -2.221555  -3.554850  3.939456
H    -3.026888  -4.213739  2.086048
H    -1.741982  -4.532508  4.059385
H    -3.077542  -3.505416  4.627596
H    -1.485723  -2.793706  4.221214
H    -3.422838  0.462778  6.155169
Pb    0.891068  2.041146  3.552847
