29
Energy: -609841.067447 eV PBE+vdW (tier 2 basis)
C    0.316811  -1.855526  -0.004797
C    -0.144180  -0.994939  1.130590
O    0.461181  0.019488  1.504050
H    1.359925  -2.148272  0.166825
H    0.303682  -1.251505  -0.922648
H    -0.295841  -2.750280  -0.159664
N    -1.309004  -1.365126  1.771624
C    -1.920960  -0.465331  2.744429
C    -1.189217  -0.624008  4.100965
O    -1.689335  -1.278867  5.103489
H    -1.782670  -2.222769  1.505847
H    -1.664863  0.550602  2.399163
C    -3.450025  -0.612136  2.760233
C    -4.241974  0.672926  3.051429
C    -4.334207  1.146686  4.477035
O    -4.252576  0.389459  5.470567
O    -4.578138  2.405549  4.740270
H    -3.778728  -1.439565  3.410398
H    -3.745732  -0.921725  1.748667
H    -5.293552  0.514652  2.747664
H    -3.881581  1.496583  2.416683
N    0.019078  -0.125592  4.137772
C    0.978984  -0.224620  5.231497
H    0.346459  0.222104  3.196224
H    0.578870  -0.836507  6.042847
H    1.902645  -0.676575  4.850118
H    1.214966  0.781786  5.599796
H    -4.664894  2.961873  3.939620
Pb    -3.414346  -1.494866  6.408270
