29
Energy: -609841.964586 eV PBE+vdW (tier 2 basis)
C    0.207064  1.031922  -0.791088
C    -0.364686  0.815959  0.574439
O    0.317260  0.193568  1.435292
H    0.467473  0.058894  -1.228615
H    1.147269  1.592487  -0.692048
H    -0.460293  1.571334  -1.471395
N    -1.590843  1.321935  0.821883
C    -2.386070  1.383482  2.067688
C    -1.503107  1.690623  3.295256
O    -1.024283  0.755530  4.013143
H    -2.001991  1.824187  0.039843
H    -3.020490  2.263124  1.909373
C    -3.347165  0.187759  2.368787
C    -3.594660  -0.838251  1.263320
C    -2.548081  -1.922009  1.159430
O    -1.600958  -2.044700  1.951538
O    -2.638901  -2.821339  0.200985
H    -4.313767  0.628979  2.640607
H    -3.004637  -0.338736  3.266847
H    -3.738776  -0.382033  0.271927
H    -4.546762  -1.353564  1.478631
N    -1.287218  2.951284  3.634615
C    -1.787989  4.175357  2.996915
H    -0.722839  3.067708  4.477748
H    -1.539210  4.196292  1.929845
H    -1.295725  5.026668  3.475108
H    -2.870950  4.282913  3.140267
H    -3.435089  -2.712871  -0.356154
Pb    0.091423  -1.126505  3.291812
