29
Energy: -609841.460639 eV PBE+vdW (tier 2 basis)
C    -1.089709  0.903481  1.007088
C    -0.733760  0.508303  2.397019
O    0.326959  1.013861  2.934507
H    -1.238108  1.992437  0.974370
H    -1.995546  0.403317  0.650432
H    -0.250903  0.678335  0.334527
N    -1.515657  -0.334755  3.057745
C    -1.303293  -0.691168  4.454815
C    -0.036955  -1.565901  4.606151
O    0.967710  -1.029286  5.213941
H    -2.403396  -0.733417  2.636241
H    -1.010310  0.231349  4.981431
C    -2.598847  -1.107896  5.197241
C    -3.475211  -2.305705  4.802606
C    -4.162794  -2.235688  3.454251
O    -3.753276  -1.601136  2.479247
O    -5.263544  -2.971842  3.422203
H    -3.225130  -0.203187  5.192513
H    -2.307663  -1.252417  6.247552
H    -4.257585  -2.405298  5.567753
H    -2.933203  -3.261210  4.846671
N    0.112245  -2.785336  4.128991
C    -0.766342  -3.613059  3.300417
H    1.026943  -3.191801  4.339571
H    -1.189196  -4.433479  3.892797
H    -0.160672  -4.046241  2.495830
H    -1.561749  -3.015560  2.852058
H    -5.668136  -2.924770  2.529976
Pb    1.794457  0.978067  4.605433
