29
Energy: -609841.497379 eV PBE+vdW (tier 2 basis)
C    0.075959  0.764749  1.228224
C    -0.967589  1.188945  2.195233
O    -0.854194  2.282628  2.837874
H    -0.039165  -0.268771  0.889125
H    1.054164  0.877114  1.719235
H    0.092503  1.449185  0.366859
N    -2.068921  0.431326  2.430257
C    -2.915055  -0.138953  1.385034
C    -3.266304  0.965519  0.363678
O    -3.236952  2.195490  0.700104
H    -2.595530  0.754430  3.242570
H    -2.372469  -0.947530  0.876594
C    -4.190600  -0.758630  2.013061
C    -5.371968  0.163198  2.409689
C    -5.188157  1.132098  3.562041
O    -4.222980  1.916509  3.658833
O    -6.092302  1.198725  4.511595
H    -3.871657  -1.366520  2.871688
H    -4.601868  -1.469916  1.285392
H    -6.230383  -0.489703  2.617477
H    -5.680043  0.786744  1.552141
N    -3.619645  0.641002  -0.870707
C    -3.736001  -0.683015  -1.489738
H    -3.859401  1.439484  -1.461218
H    -3.428244  -0.603086  -2.537318
H    -4.774254  -1.037409  -1.454756
H    -3.084774  -1.410577  -0.996526
H    -6.813394  0.545971  4.411884
Pb    -2.803236  3.530991  2.583980
