29
Energy: -609840.922072 eV PBE+vdW (tier 2 basis)
C    0.218091  -0.178330  0.273773
C    0.049737  -0.429640  1.733343
O    1.058109  -0.842274  2.439095
H    0.542650  -1.107818  -0.215254
H    1.008383  0.568087  0.113654
H    -0.704245  0.170871  -0.200531
N    -1.122984  -0.241771  2.292611
C    -1.597001  -0.526161  3.647990
C    -3.109138  -0.852448  3.376389
O    -3.572631  -0.508846  2.284716
H    -1.977946  -0.067042  1.705417
H    -1.069197  -1.398452  4.055202
C    -1.498846  0.706057  4.599306
C    -0.448558  0.638704  5.745658
C    0.951079  0.575529  5.230528
O    1.601206  -0.490669  5.212019
O    1.529441  1.638293  4.689222
H    -2.464692  0.851329  5.099961
H    -1.353529  1.606507  3.986555
H    -0.616807  -0.242087  6.376187
H    -0.571537  1.531657  6.377631
N    -3.823185  -1.451580  4.340101
C    -3.387054  -1.899477  5.657728
H    -4.805376  -1.579954  4.101245
H    -4.026596  -2.729442  5.974252
H    -3.465157  -1.103161  6.412225
H    -2.357946  -2.277451  5.628093
H    1.001364  2.456469  4.785697
Pb    2.945638  -1.161047  3.446635
