29
Energy: -609841.565944 eV PBE+vdW (tier 2 basis)
C    0.545449  0.358797  -0.365586
C    0.199427  0.053343  1.055053
O    0.813091  -0.896447  1.646259
H    1.615556  0.595958  -0.437580
H    -0.037872  1.178896  -0.796528
H    0.384364  -0.549685  -0.964010
N    -0.762720  0.782771  1.634387
C    -1.473696  0.663329  2.927981
C    -0.594110  0.972670  4.143452
O    0.625905  0.597369  4.229796
H    -1.151593  1.500625  1.027692
H    -2.203772  1.480685  2.875051
C    -2.345626  -0.613223  3.083392
C    -1.659252  -1.962137  3.343535
C    -1.048756  -2.056667  4.714799
O    -1.533057  -1.754036  5.763786
O    0.284070  -2.579708  4.665592
H    -2.942026  -0.697792  2.165180
H    -3.062627  -0.418941  3.893402
H    -0.941124  -2.235053  2.565859
H    -2.440718  -2.740335  3.325906
N    -1.114492  1.647886  5.154040
C    -2.470045  2.175002  5.340325
H    -0.476196  1.761757  5.943378
H    -2.871854  2.587194  4.408581
H    -2.419549  2.985422  6.073363
H    -3.138949  1.393418  5.723564
H    0.514257  -2.819895  5.591361
Pb    1.998915  -1.071203  3.547974
