29
Energy: -609841.499088 eV PBE+vdW (tier 2 basis)
C    -0.912576  -1.353361  0.372872
C    -0.571222  -0.496984  1.544663
O    0.673161  -0.307751  1.814655
H    -0.421050  -2.329303  0.489657
H    -0.498226  -0.899132  -0.538359
H    -1.990037  -1.497424  0.245536
N    -1.558353  0.028239  2.259613
C    -1.544373  0.744437  3.552584
C    -0.861456  2.114805  3.482072
O    0.412919  2.258644  3.439376
H    -2.501453  -0.327099  2.064701
H    -2.610513  0.933929  3.723660
C    -1.061437  -0.111996  4.742912
C    -1.701336  -1.513388  4.832192
C    -3.201370  -1.562174  4.575781
O    -3.748198  -1.023578  3.619461
O    -3.841622  -2.287960  5.488753
H    -1.280304  0.459878  5.656523
H    0.031066  -0.244633  4.725096
H    -1.479037  -1.945734  5.814119
H    -1.247737  -2.187577  4.088636
N    -1.641943  3.176272  3.526666
C    -1.200394  4.573071  3.519634
H    -2.646885  3.014249  3.565799
H    -1.770167  5.124722  4.275347
H    -1.391238  5.016654  2.533807
H    -0.133957  4.622002  3.749160
H    -4.792170  -2.339460  5.251939
Pb    2.139938  1.003686  2.799965
