29
Energy: -609842.059324 eV PBE+vdW (tier 2 basis)
C    -1.139244  0.011990  0.167405
C    -0.830785  0.064938  1.630898
O    0.348506  0.328106  1.996566
H    -0.906792  0.991669  -0.273542
H    -2.180218  -0.242148  -0.058342
H    -0.471432  -0.714899  -0.313704
N    -1.850158  -0.158344  2.485620
C    -1.953191  -0.073426  3.961543
C    -1.190967  1.136416  4.544881
O    0.040883  1.062000  4.843627
H    -2.741785  -0.320946  2.025761
H    -3.021957  0.122287  4.114826
C    -1.613545  -1.362021  4.779737
C    -1.470104  -2.682322  4.023711
C    -0.106881  -2.912877  3.415388
O    0.858723  -2.151692  3.580961
O    0.105629  -3.991862  2.689977
H    -2.415554  -1.478938  5.518785
H    -0.701550  -1.192905  5.364206
H    -2.238818  -2.824245  3.248673
H    -1.630163  -3.508878  4.737449
N    -1.891802  2.233311  4.781040
C    -1.365197  3.469393  5.365158
H    -2.884331  2.219880  4.556790
H    -1.366131  4.265699  4.610291
H    -0.348035  3.295742  5.722043
H    -2.005257  3.768973  6.202729
H    -0.670766  -4.584374  2.642729
Pb    1.772928  0.005470  3.747793
