26
Energy: -37173.1759007 eV PBE+vdW (tier 2 basis)
C    -1.343522  -1.679912  1.725381
C    -0.240947  -0.722720  2.019653
O    0.965397  -1.007999  1.724558
H    -0.998603  -2.681907  2.017097
H    -1.541918  -1.726013  0.643737
H    -2.272623  -1.449775  2.254622
N    -0.494908  0.469733  2.611712
C    -1.552633  1.359800  2.141207
C    -1.075426  1.954552  0.765868
O    0.034919  1.544212  0.257995
H    0.348041  0.950777  2.931469
H    -2.444423  0.752374  1.926116
C    -1.900221  2.385518  3.241925
C    -3.255653  3.056265  3.068567
O    -3.749954  3.449380  4.233529
O    -3.811586  3.221023  1.989048
H    -1.142499  3.183474  3.303187
H    -1.890585  1.870241  4.211047
N    -1.857436  2.823529  0.185791
C    -1.625285  3.482965  -1.096565
H    -2.733761  3.053266  0.722402
H    -1.712496  4.567335  -0.960266
H    -2.390193  3.160132  -1.814200
H    -0.631956  3.237493  -1.478151
H    -4.601240  3.915724  4.089280
Ca    1.734995  0.269828  0.161971
