26
Energy: -37173.8628064 eV PBE+vdW (tier 2 basis)
C    0.546452  0.034071  0.143205
C    0.037234  -0.177764  1.528628
O    0.746984  -0.770178  2.395248
H    0.758341  -0.947186  -0.305852
H    1.501663  0.574474  0.187617
H    -0.148962  0.580224  -0.502172
N    -1.200814  0.258484  1.827745
C    -1.939988  0.071529  3.088463
C    -1.358938  0.954154  4.214581
O    -0.228776  0.683881  4.722380
H    -1.709946  0.716828  1.076278
H    -2.952746  0.430195  2.873400
C    -2.051803  -1.448833  3.468108
C    -1.897114  -1.748249  4.940983
O    -0.590350  -2.255497  5.247338
O    -2.708429  -1.611826  5.802159
H    -1.335202  -2.037056  2.888118
H    -3.056670  -1.792367  3.194366
N    -2.093023  1.975545  4.619671
C    -1.728694  2.916942  5.680650
H    -3.000963  2.113154  4.180922
H    -2.451724  2.836763  6.501605
H    -1.749325  3.938100  5.282058
H    -0.726694  2.681495  6.044434
H    -0.660722  -2.604295  6.163026
Ca    1.238208  -0.896591  4.477042
