26
Energy: -37173.569469 eV PBE+vdW (tier 2 basis)
C    0.029160  -0.013006  0.037359
C    0.094532  -0.074004  1.524637
O    1.212339  -0.284795  2.114530
H    0.668993  0.812841  -0.306592
H    -0.987205  0.140105  -0.338286
H    0.444933  -0.935075  -0.390163
N    -1.022868  0.104306  2.224462
C    -1.104935  0.223480  3.684465
C    -0.957983  -1.167804  4.353161
O    0.241539  -1.551630  4.588484
H    -1.940528  0.261436  1.757322
H    -0.193493  0.737752  4.022939
C    -2.282627  1.133030  4.101986
C    -3.549256  1.076364  3.260619
O    -4.588668  1.565555  3.928931
O    -3.598950  0.670268  2.106188
H    -1.935500  2.176189  4.029613
H    -2.529616  0.987976  5.160911
N    -1.956024  -1.967016  4.679743
C    -3.403116  -1.842140  4.465439
H    -1.647596  -2.825884  5.138614
H    -3.841736  -2.833988  4.606238
H    -3.620534  -1.515279  3.444449
H    -3.855651  -1.161477  5.196910
H    -5.369085  1.606139  3.335390
Ca    2.166151  -1.282351  3.696840
