26
Energy: -37173.4944105 eV PBE+vdW (tier 2 basis)
C    -0.082599  -0.361355  -0.046435
C    -0.017043  -0.186831  1.433431
O    1.091518  -0.350923  2.044075
H    -1.073667  -0.161365  -0.465535
H    0.207389  -1.394306  -0.288446
H    0.655038  0.295912  -0.525958
N    -1.137493  0.138497  2.084050
C    -1.419302  0.164973  3.536150
C    -0.629887  1.224841  4.311399
O    0.633737  1.127563  4.473614
H    -1.983817  0.145049  1.517415
H    -2.479403  0.436170  3.578630
C    -1.306938  -1.220673  4.192800
C    -2.391775  -2.137352  3.620288
O    -2.303707  -3.361472  4.148151
O    -3.206653  -1.768134  2.800460
H    -1.449981  -1.142924  5.281100
H    -0.324945  -1.688434  4.038553
N    -1.281042  2.227092  4.874064
C    -2.717382  2.544155  4.834865
H    -0.692414  2.851977  5.427283
H    -3.079698  2.608597  3.802955
H    -2.853579  3.521748  5.305235
H    -3.300227  1.805505  5.398643
H    -3.021941  -3.919339  3.782054
Ca    2.350812  0.229029  3.615160
