26
Energy: -37173.526673 eV PBE+vdW (tier 2 basis)
C    0.891763  0.522048  0.142371
C    0.454012  0.059041  1.491633
O    1.278916  -0.531311  2.260532
H    1.201150  -0.356568  -0.442744
H    1.777868  1.162426  0.244466
H    0.115792  1.061449  -0.410169
N    -0.816775  0.275670  1.857800
C    -1.543739  -0.202776  3.056241
C    -0.996769  0.428548  4.351212
O    0.111663  0.017336  4.843201
H    -1.391126  0.756269  1.169788
H    -2.566301  0.165085  2.923468
C    -1.622678  -1.736585  3.121884
C    -2.480723  -2.162504  4.304248
O    -2.640751  -3.487447  4.341288
O    -2.942231  -1.366685  5.099647
H    -0.637922  -2.218968  3.192223
H    -2.068277  -2.118352  2.192308
N    -1.643291  1.418195  4.932113
C    -2.976363  1.947785  4.619802
H    -1.210193  1.753858  5.793210
H    -3.737506  1.177826  4.798851
H    -3.027697  2.313106  3.587949
H    -3.163826  2.794499  5.285351
H    -3.220834  -3.719097  5.096937
Ca    1.953838  -0.808849  4.243394
