26
Energy: -37173.0678682 eV PBE+vdW (tier 2 basis)
C    -0.895330  -1.076714  -0.231771
C    -0.453147  -0.238850  0.931565
O    0.157284  0.816005  0.840818
H    -1.708488  -0.550138  -0.751046
H    -1.245241  -2.075992  0.050747
H    -0.066806  -1.162279  -0.944433
N    -0.771475  -0.732332  2.208225
C    -0.502299  0.113140  3.342353
C    0.307212  -0.618676  4.407617
O    -0.136684  -0.735356  5.614349
H    -1.353413  -1.559273  2.304022
H    0.135630  0.910688  2.899882
C    -1.814496  0.784564  3.862529
C    -1.618263  1.939906  4.804512
O    -1.542388  3.105140  4.218218
O    -1.525838  1.819330  6.051906
H    -2.462235  0.039942  4.344820
H    -2.327953  1.161731  2.970477
N    1.482211  -1.137927  4.106820
C    2.218961  -1.082841  2.838508
H    1.924420  -1.659530  4.864028
H    1.969970  -1.951756  2.216550
H    3.288019  -1.104328  3.071548
H    1.992181  -0.163489  2.290067
H    -1.417665  3.833207  4.866539
Ca    -0.999166  0.120828  7.306151
