26
Energy: -37173.2705746 eV PBE+vdW (tier 2 basis)
C    0.011206  0.191776  0.084610
C    0.079630  0.084323  1.569200
O    1.197418  -0.126354  2.150335
H    0.436821  -0.712039  -0.371428
H    0.641929  1.034807  -0.233514
H    -1.005959  0.345121  -0.289003
N    -1.043290  0.222173  2.278780
C    -1.112475  0.311453  3.743492
C    -0.918377  -1.083619  4.396973
O    0.296203  -1.431301  4.618170
H    -1.925369  0.411279  1.787995
H    -0.201117  0.836403  4.066428
C    -2.277555  1.205542  4.228631
C    -3.680029  1.106338  3.636204
O    -3.655665  0.968049  2.267464
O    -4.690720  1.198161  4.274324
H    -1.966759  2.247913  4.051118
H    -2.382587  1.104458  5.315222
N    -1.884722  -1.914639  4.733675
C    -3.339315  -1.831943  4.554893
H    -1.541911  -2.762990  5.188162
H    -3.797791  -1.179896  5.307406
H    -3.742471  -2.841213  4.677574
H    -3.588304  -1.488664  3.546517
H    -4.580677  1.010250  1.944809
Ca    2.202887  -1.106388  3.723965
