26
Energy: -37173.6518036 eV PBE+vdW (tier 2 basis)
C    0.143496  -0.774714  -0.029960
C    -0.063654  -0.182151  1.321192
O    0.460818  0.938051  1.625786
H    1.219022  -0.856752  -0.235636
H    -0.270909  -0.084514  -0.779569
H    -0.326009  -1.756220  -0.151193
N    -0.823189  -0.836604  2.211119
C    -1.230761  -0.293764  3.515467
C    -0.075440  -0.393839  4.537665
O    0.833002  0.500680  4.513968
H    -1.214560  -1.730505  1.922088
H    -1.382651  0.786448  3.382379
C    -2.570325  -0.874830  3.968490
C    -3.043651  -0.111238  5.203782
O    -4.225008  -0.557073  5.629010
O    -2.390940  0.786297  5.702656
H    -2.542301  -1.956722  4.176355
H    -3.318533  -0.751432  3.171258
N    -0.009890  -1.407171  5.375407
C    1.036637  -1.580031  6.389028
H    -0.775067  -2.075981  5.379446
H    0.961933  -2.592602  6.793544
H    0.899032  -0.852221  7.198902
H    2.023668  -1.439695  5.937256
H    -4.507570  -0.034448  6.408785
Ca    1.438278  2.026757  3.164686
