26
Energy: -37172.6960607 eV PBE+vdW (tier 2 basis)
C    -0.336219  0.658198  0.091273
C    -0.341016  -0.237264  1.282831
O    0.557773  -1.137859  1.420918
H    0.637127  1.158569  0.002642
H    -1.127102  1.414729  0.115792
H    -0.464602  0.040577  -0.810213
N    -1.305403  -0.096764  2.197647
C    -1.617841  -1.042531  3.276836
C    -3.133508  -1.057369  3.666634
O    -3.631080  -2.154995  3.852932
H    -2.022911  0.596505  1.988952
H    -1.464327  -2.053235  2.877956
C    -0.768399  -0.867769  4.586120
C    0.609245  -1.366830  4.337024
O    0.808104  -2.710577  4.168321
O    1.602348  -0.679305  4.084829
H    -1.261196  -1.460702  5.371999
H    -0.719443  0.179617  4.903896
N    -3.767818  0.134109  3.757145
C    -5.189525  0.211931  4.119830
H    -3.229796  0.992566  3.831270
H    -5.596777  1.158398  3.752459
H    -5.323786  0.149440  5.207461
H    -5.718751  -0.622742  3.651014
H    0.031543  -3.268769  4.381844
Ca    2.323967  -1.879846  2.304032
