26
Energy: -37172.9295733 eV PBE+vdW (tier 2 basis)
C    -0.422716  -1.320704  0.026409
C    -0.474323  -0.149304  0.948193
O    0.520868  0.668142  1.006517
H    0.428383  -1.954842  0.314767
H    -0.238866  -0.983361  -1.002526
H    -1.337326  -1.920924  0.050057
N    -1.552408  0.021162  1.695733
C    -1.795772  0.938813  2.798953
C    -3.024866  0.271034  3.530393
O    -3.645183  -0.583322  2.899811
H    -2.352910  -0.646531  1.649061
H    -0.913446  0.972624  3.454411
C    -2.206831  2.385366  2.349125
C    -1.067292  3.033673  1.641704
O    0.014018  3.470129  2.355794
O    -0.917036  3.090886  0.420620
H    -2.497796  2.968715  3.234021
H    -3.062345  2.334031  1.665057
N    -3.336324  0.671633  4.772106
C    -2.643867  1.609820  5.647709
H    -4.166134  0.212161  5.145736
H    -2.808814  1.306001  6.686622
H    -3.020900  2.637249  5.535079
H    -1.560094  1.586128  5.479103
H    -0.101813  3.447378  3.326085
Ca    1.276824  2.489688  0.319001
