26
Energy: -37173.85776 eV PBE+vdW (tier 2 basis)
C    0.009319  0.113619  -0.007258
C    -0.304206  -0.121262  1.431490
O    0.552884  -0.645938  2.203524
H    -0.804375  0.591529  -0.562145
H    0.245874  -0.852330  -0.476601
H    0.913605  0.732443  -0.083917
N    -1.525379  0.220375  1.883509
C    -2.081292  -0.009678  3.228552
C    -1.427676  0.921998  4.270795
O    -0.229150  0.740044  4.642088
H    -2.160488  0.627749  1.201777
H    -3.136797  0.272646  3.146639
C    -2.030373  -1.530979  3.617427
C    -1.665111  -1.807243  5.057329
O    -0.295482  -2.215390  5.190923
O    -2.365948  -1.724871  6.016670
H    -1.352851  -2.069213  2.948677
H    -3.033926  -1.949858  3.475348
N    -2.164831  1.898874  4.767406
C    -1.690897  2.853649  5.775855
H    -3.125583  1.992167  4.448109
H    -2.542478  3.450341  6.111741
H    -0.929420  3.515161  5.345078
H    -1.263629  2.314543  6.628700
H    -0.222167  -2.565024  6.106063
Ca    1.313375  -0.725353  4.205222
