26
Energy: -37173.2960764 eV PBE+vdW (tier 2 basis)
C    0.051195  0.733427  0.945909
C    0.317013  0.056759  2.243343
O    1.491350  -0.213325  2.628047
H    0.626602  1.671632  0.937023
H    -1.004005  0.969490  0.780461
H    0.435312  0.124433  0.116150
N    -0.711247  -0.287619  3.073895
C    -1.949753  -0.970736  2.628376
C    -2.628863  -1.493556  3.887223
O    -2.031006  -2.426289  4.570705
H    -0.357131  -0.622698  3.970325
H    -2.604896  -0.265496  2.107422
C    -1.646005  -2.177682  1.664656
C    -0.265511  -2.739661  1.966841
O    0.041417  -3.031368  3.194459
O    0.628455  -2.744328  1.078687
H    -1.664023  -1.835608  0.624870
H    -2.413052  -2.959996  1.763665
N    -3.789008  -1.076813  4.323768
C    -4.668805  -0.017717  3.818764
H    -4.124237  -1.574876  5.154636
H    -4.976054  0.605868  4.665950
H    -5.559753  -0.467422  3.363377
H    -4.153929  0.612021  3.090042
H    -1.168164  -2.765650  4.092846
Ca    2.216707  -2.319856  2.594425
