26
Energy: -37173.4575277 eV PBE+vdW (tier 2 basis)
C    0.598484  0.697936  0.240139
C    0.241140  0.190068  1.593378
O    1.140148  0.002060  2.474811
H    1.033134  1.702408  0.352713
H    -0.255919  0.755085  -0.441862
H    1.377425  0.061660  -0.199962
N    -1.043983  -0.060642  1.881178
C    -1.538495  -0.372045  3.230463
C    -1.246988  -1.837586  3.606288
O    -0.132041  -2.064288  4.194225
H    -1.730300  0.120641  1.151904
H    -0.908853  0.217594  3.917588
C    -2.942893  0.187788  3.454571
C    -2.821936  1.668909  3.843062
O    -4.011439  2.268834  3.787848
O    -1.771847  2.185473  4.167337
H    -3.437728  -0.328183  4.290841
H    -3.613137  0.082217  2.591469
N    -2.061529  -2.844185  3.352431
C    -3.349368  -2.861995  2.650615
H    -1.727751  -3.744963  3.700622
H    -4.178078  -2.674234  3.344469
H    -3.478703  -3.856508  2.212658
H    -3.365162  -2.128923  1.839781
H    -3.917275  3.200108  4.079092
Ca    1.766094  -1.071230  4.187342
