26
Energy: -37172.7763464 eV PBE+vdW (tier 2 basis)
C    0.471916  -0.500227  0.619475
C    -0.126279  -0.696817  1.977730
O    0.220394  -1.599591  2.749943
H    0.551550  -1.470439  0.116298
H    1.496143  -0.120619  0.749608
H    -0.082119  0.203123  -0.011975
N    -1.116493  0.186533  2.361265
C    -1.552655  0.340361  3.743871
C    -2.460780  -0.809696  4.277475
O    -3.461871  -0.558426  5.060176
H    -1.431409  0.870454  1.680649
H    -0.655679  0.299416  4.388819
C    -2.186359  1.751522  3.869454
C    -2.853737  1.964664  5.189074
O    -4.149246  2.369623  5.235996
O    -2.357172  1.706756  6.289771
H    -2.898507  1.927058  3.050848
H    -1.380065  2.496565  3.775077
N    -2.095483  -2.021682  3.963554
C    -2.759506  -3.253517  4.376350
H    -1.160629  -2.070187  3.459960
H    -2.725026  -3.962701  3.542590
H    -3.801251  -3.056868  4.643919
H    -2.229368  -3.699329  5.229078
H    -4.538353  2.560317  4.358443
Ca    -4.040831  0.323004  6.883729
