26
Energy: -37173.2157598 eV PBE+vdW (tier 2 basis)
C    0.538119  -0.216704  -0.840569
C    0.075242  0.462818  0.403000
O    0.911274  0.686272  1.354666
H    1.387041  0.331632  -1.270097
H    -0.251759  -0.312691  -1.591684
H    0.906030  -1.218986  -0.576338
N    -1.195359  0.819255  0.501268
C    -1.943756  1.284853  1.665128
C    -3.363770  0.645648  1.424154
O    -3.625865  0.299944  0.271301
H    -1.881482  0.513001  -0.221083
H    -1.478018  0.913749  2.587025
C    -2.121379  2.818837  1.707562
C    -0.921419  3.646804  2.097634
O    -0.924802  4.937985  1.864643
O    0.081596  3.182239  2.671895
H    -2.907340  3.072712  2.441086
H    -2.505375  3.168111  0.736080
N    -4.219032  0.541931  2.453329
C    -4.036711  0.886184  3.858566
H    -5.125838  0.161493  2.183568
H    -4.526800  0.128249  4.479537
H    -4.478653  1.863791  4.099699
H    -2.975186  0.892031  4.129660
H    -1.736684  5.254392  1.418534
Ca    1.788562  1.867488  2.800288
