26
Energy: -37173.5833948 eV PBE+vdW (tier 2 basis)
C    0.900535  0.895655  0.144143
C    0.482119  0.189779  1.390207
O    1.361297  -0.228191  2.211307
H    1.507916  0.204759  -0.458988
H    1.548597  1.743403  0.403115
H    0.061214  1.252281  -0.461409
N    -0.826692  0.007132  1.610094
C    -1.497825  -0.776490  2.673639
C    -1.294944  -0.152430  4.070676
O    -0.169333  -0.242219  4.665925
H    -1.445208  0.384078  0.896110
H    -2.566810  -0.694130  2.439228
C    -1.132071  -2.269391  2.603908
C    -1.869632  -3.057776  3.677412
O    -1.806855  -4.370813  3.444966
O    -2.423066  -2.526805  4.621129
H    -0.051934  -2.443199  2.716485
H    -1.387073  -2.662181  1.610374
N    -2.298991  0.518776  4.595720
C    -2.304528  1.116004  5.931487
H    -3.192404  0.479494  4.110959
H    -3.007969  1.953815  5.937962
H    -1.303638  1.475543  6.182432
H    -2.621627  0.367703  6.670599
H    -2.295526  -4.845365  4.150129
Ca    1.880449  -0.480434  4.243390
