26
Energy: -37173.7669697 eV PBE+vdW (tier 2 basis)
C    -0.224459  -0.295894  0.359416
C    -0.481214  -0.703615  1.769417
O    0.389110  -0.522209  2.669995
H    0.114804  0.748063  0.339792
H    -1.094093  -0.410981  -0.295360
H    0.599867  -0.908778  -0.034433
N    -1.661142  -1.282749  2.065613
C    -2.065616  -1.829844  3.369085
C    -1.977147  -0.772828  4.491133
O    -0.942877  -0.687586  5.222515
H    -2.297227  -1.444567  1.288960
H    -3.128142  -2.072217  3.250305
C    -1.374637  -3.172340  3.769948
C    0.030449  -3.405086  3.266301
O    1.045968  -3.059031  4.220908
O    0.340901  -3.858382  2.208198
H    -1.957319  -3.985478  3.319288
H    -1.420188  -3.288750  4.859281
N    -3.015092  0.020559  4.700539
C    -4.298588  0.060456  3.987120
H    -2.898256  0.672833  5.477160
H    -4.881859  0.891226  4.393346
H    -4.869077  -0.863867  4.145585
H    -4.150956  0.240398  2.916046
H    1.850423  -3.523842  3.900729
Ca    1.139367  -0.724488  4.683112
