26
Energy: -37173.6109197 eV PBE+vdW (tier 2 basis)
C    -0.734568  -0.112861  0.167915
C    -0.411221  0.169329  1.593823
O    0.275301  1.194655  1.912036
H    0.175356  -0.057080  -0.442327
H    -1.409360  0.680688  -0.188701
H    -1.221629  -1.081642  0.016732
N    -0.862965  -0.661226  2.540695
C    -0.856497  -0.385681  3.988260
C    0.522527  -0.700284  4.596909
O    1.462697  0.144337  4.416174
H    -1.410638  -1.459623  2.226447
H    -0.991915  0.703090  4.092057
C    -2.073997  -1.031790  4.647466
C    -3.336567  -0.248118  4.260669
O    -4.432564  -0.904373  4.648425
O    -3.300664  0.823623  3.694590
H    -1.989505  -0.983382  5.743749
H    -2.204134  -2.093613  4.386087
N    0.703275  -1.810319  5.283857
C    1.951225  -2.233508  5.924576
H    -0.097299  -2.430379  5.389923
H    1.756501  -2.451046  6.981075
H    2.690747  -1.434853  5.841355
H    2.326178  -3.140855  5.435046
H    -5.223060  -0.368126  4.428260
Ca    1.798779  1.873037  3.197901
