26
Energy: -37173.652408 eV PBE+vdW (tier 2 basis)
C    0.103361  -1.326040  -0.074505
C    -0.133101  -0.548064  1.173905
O    0.157037  0.690872  1.230954
H    -0.148574  -2.387220  0.019792
H    1.153777  -1.225686  -0.378226
H    -0.502881  -0.884325  -0.879161
N    -0.670740  -1.165690  2.235511
C    -1.097288  -0.484627  3.466816
C    0.118711  -0.168446  4.369567
O    0.814208  0.865400  4.097395
H    -0.879286  -2.157352  2.141320
H    -1.480562  0.502611  3.173622
C    -2.254850  -1.222313  4.139992
C    -2.804765  -0.350276  5.267218
O    -3.830325  -0.939046  5.881556
O    -2.335378  0.739876  5.534100
H    -1.989709  -2.220817  4.523627
H    -3.058657  -1.397097  3.409122
N    0.437853  -0.981315  5.355024
C    1.548360  -0.796835  6.292081
H    -0.176815  -1.772550  5.530938
H    2.200561  -0.000104  5.929913
H    2.111592  -1.733289  6.371682
H    1.152939  -0.527632  7.279712
H    -4.172464  -0.345488  6.582734
Ca    0.983996  2.210455  2.462312
