26
Energy: -37173.0272792 eV PBE+vdW (tier 2 basis)
C    0.889883  0.030679  0.297674
C    0.230258  -0.330018  1.585899
O    0.491221  -1.460157  2.148204
H    0.599319  -0.709674  -0.462184
H    1.981502  -0.027511  0.402789
H    0.614754  1.028963  -0.056098
N    -0.621665  0.528161  2.123100
C    -1.541605  0.370649  3.239474
C    -2.572140  1.546562  2.996411
O    -2.225367  2.440033  2.226645
H    -0.830429  1.440208  1.661203
H    -2.041117  -0.608124  3.175757
C    -0.879015  0.563279  4.649892
C    0.121549  -0.515110  4.887690
O    -0.301221  -1.783187  5.179814
O    1.334672  -0.425470  4.695411
H    -1.664210  0.548930  5.419250
H    -0.367068  1.532300  4.692203
N    -3.725084  1.493266  3.672677
C    -4.760902  2.526339  3.549514
H    -3.963653  0.652531  4.188389
H    -5.258559  2.650656  4.516391
H    -5.500718  2.244528  2.789687
H    -4.286527  3.466575  3.255679
H    -1.259151  -1.865784  5.354813
Ca    1.646791  -2.404900  3.609697
