26
Energy: -37174.4544102 eV PBE+vdW (tier 2 basis)
C    -1.051746  0.221540  0.103945
C    -0.763071  0.000746  1.553520
O    0.422717  -0.069866  1.969677
H    -0.581535  1.164143  -0.209393
H    -2.119461  0.255604  -0.135322
H    -0.575857  -0.577962  -0.479912
N    -1.817534  -0.109646  2.391618
C    -1.825074  -0.290088  3.855532
C    -0.820344  0.636432  4.575945
O    0.349561  0.253032  4.866813
H    -2.734536  -0.043816  1.957380
H    -2.818094  0.067980  4.157596
C    -1.824059  -1.761641  4.339347
C    -0.768516  -2.754550  3.900795
O    -1.264069  -3.971575  3.836805
O    0.425897  -2.516924  3.669436
H    -2.796035  -2.203416  4.084487
H    -1.791009  -1.762134  5.443216
N    -1.233496  1.849182  4.921898
C    -2.543253  2.476392  4.707850
H    -0.535094  2.399438  5.422950
H    -3.325262  1.977489  5.295263
H    -2.810950  2.486104  3.644876
H    -2.477652  3.513481  5.048202
H    -0.562458  -4.627261  3.631827
Ca    1.759931  -0.740684  3.540647
