26
Energy: -37174.2626073 eV PBE+vdW (tier 2 basis)
C    0.150939  -0.466738  -0.344838
C    -0.224454  0.192884  0.944228
O    0.597887  0.247393  1.892006
H    1.027788  0.045744  -0.763737
H    -0.649540  -0.476597  -1.091511
H    0.459996  -1.499514  -0.132729
N    -1.472052  0.710755  1.028160
C    -2.197846  1.379828  2.124596
C    -1.560495  2.717354  2.566496
O    -0.354498  2.803587  2.926046
H    -2.020907  0.609212  0.179171
H    -3.145420  1.651610  1.644462
C    -2.668915  0.455894  3.284571
C    -1.732129  -0.041623  4.375094
O    -2.194437  -0.970835  5.188451
O    -0.594973  0.381945  4.587892
H    -3.151546  -0.419165  2.822020
H    -3.479352  0.985492  3.815863
N    -2.330827  3.800917  2.561602
C    -3.734218  3.951985  2.157284
H    -1.850029  4.646150  2.871814
H    -4.401868  3.337342  2.773564
H    -3.872044  3.718259  1.093910
H    -4.013369  4.998568  2.307638
H    -3.101828  -1.269038  4.981710
Ca    1.136136  1.379591  3.647239
