26
Energy: -37173.240282 eV PBE+vdW (tier 2 basis)
C    -0.351300  0.741923  -0.492926
C    -0.348007  0.242916  0.911164
O    0.687286  -0.295403  1.397382
H    -1.332423  1.069060  -0.845638
H    -0.026329  -0.100313  -1.123427
H    0.391326  1.538328  -0.632721
N    -1.476930  0.275631  1.682131
C    -2.326459  1.445899  2.023719
C    -2.200132  2.620681  1.060982
O    -1.145197  3.374296  1.076056
H    -1.379491  -0.335870  2.496775
H    -3.372938  1.122637  2.049500
C    -1.925396  1.912528  3.472514
C    -0.423002  1.740831  3.634084
O    0.373407  2.386448  2.836442
O    0.040322  0.849025  4.394205
H    -2.435560  1.281506  4.208840
H    -2.231731  2.953219  3.650084
N    -3.172616  2.959303  0.249230
C    -4.454433  2.287472  -0.003537
H    -3.007707  3.829382  -0.265222
H    -4.375732  1.210268  0.166811
H    -4.719156  2.452814  -1.053048
H    -5.239704  2.718518  0.630574
H    -0.446747  3.062790  1.796446
Ca    1.839443  0.555721  3.094938
