18
Energy: -236054.182378 eV PBE+vdW (tier 2 basis)
N    0.362055  0.087780  -0.012113
C    0.176286  0.198516  1.472716
C    1.531330  0.152174  2.170035
O    2.581422  -0.072413  1.539663
H    -0.157199  0.851485  -0.450091
H    -0.292556  1.162190  1.723303
C    -0.731802  -0.994392  1.875567
C    -0.395158  -2.052284  0.820659
C    -0.248463  -1.225709  -0.455724
H    -1.780886  -0.680359  1.800014
H    -0.566502  -1.346030  2.901115
H    -1.175444  -2.815253  0.725985
H    0.538768  -2.576569  1.074051
H    -1.217087  -1.045521  -0.939982
H    0.386609  -1.723674  -1.213183
O    1.620227  0.339443  3.461770
H    0.762715  0.519399  3.898328
Ba    2.977047  -0.136682  -0.872536
