18
Energy: -236055.066897 eV PBE+vdW (tier 2 basis)
N    0.239089  0.045815  0.263666
C    -0.002327  -0.184435  1.754761
C    1.323815  -0.115522  2.502203
O    1.303231  -0.196575  3.769272
H    -0.162489  0.941875  -0.033938
H    -0.659917  0.614260  2.121337
C    -0.708379  -1.556213  1.832010
C    -1.420380  -1.670067  0.478276
C    -0.399369  -1.114736  -0.505831
H    -1.388189  -1.595312  2.688732
H    0.030178  -2.361672  1.950915
H    -2.343380  -1.073268  0.465135
H    -1.691738  -2.702648  0.232288
H    -0.807023  -0.733640  -1.447167
H    0.402292  -1.829974  -0.723653
O    2.410530  0.002497  1.837427
H    1.263408  0.100941  0.122314
Ba    3.770649  0.024674  4.042252
