34
Energy: -172328.380193 eV PBE+vdW (tier 2 basis)
C    0.327615  1.671818  -0.422110
C    -0.395468  2.158081  0.796986
O    0.048957  3.283717  1.256170
H    0.079659  0.634731  -0.662454
H    0.063873  2.317643  -1.272442
H    1.408616  1.767689  -0.268461
N    -1.400895  1.437116  1.278631
C    -2.366318  1.877873  2.298830
C    -1.845938  1.694815  3.746370
O    -1.265526  2.655849  4.377509
H    -1.737773  0.576553  0.621105
H    -2.530155  2.970767  2.188932
C    -3.731626  1.205162  2.071029
C    -4.296172  1.430029  0.648993
C    -4.708633  0.136420  -0.076409
C    -3.676794  -0.993203  -0.053305
N    -2.305922  -0.513569  -0.393030
H    -4.424509  1.582315  2.834309
H    -3.632822  0.123119  2.254400
H    -3.557696  1.969438  0.036923
H    -5.166419  2.095392  0.703903
H    -4.951633  0.392854  -1.118130
H    -5.639991  -0.258976  0.354158
H    -3.998925  -1.790378  -0.738201
H    -3.615069  -1.459044  0.941430
H    -1.676759  -1.319981  -0.443891
H    -2.317505  -0.121462  -1.340131
N    -2.023200  0.547589  4.363575
C    -1.582510  0.248776  5.731311
H    -2.564691  -0.163382  3.877063
H    -2.334932  0.591444  6.453465
H    -0.633919  0.754589  5.932405
H    -1.456388  -0.833561  5.824574
Cd    -0.453255  4.134834  3.099478
