34
Energy: -172327.959734 eV PBE+vdW (tier 2 basis)
C    -2.712642  -3.379699  0.081961
C    -1.794218  -2.498009  0.866358
O    -0.651110  -2.240241  0.384344
H    -2.218084  -4.342937  -0.100220
H    -2.886718  -2.920687  -0.901064
H    -3.675214  -3.549838  0.576063
N    -2.231153  -2.014149  2.044935
C    -1.555541  -1.007829  2.869481
C    -0.389120  -1.622207  3.679426
O    0.810247  -1.412101  3.287180
H    -3.175951  -2.274596  2.316818
H    -1.050406  -0.311542  2.179642
C    -2.574347  -0.182310  3.680480
C    -3.349593  0.834699  2.821100
C    -2.599823  2.141357  2.507126
C    -2.598825  3.162228  3.658256
N    -3.914739  3.664314  3.943483
H    -2.034147  0.329413  4.491005
H    -3.282953  -0.860175  4.176249
H    -4.282145  1.084345  3.346775
H    -3.662974  0.358380  1.879358
H    -3.054731  2.611551  1.622667
H    -1.551529  1.949896  2.225462
H    -1.911066  3.989544  3.379192
H    -2.187619  2.736150  4.585643
H    -4.429651  4.108560  3.186274
H    -4.077537  4.095254  4.849329
N    -0.561550  -2.346739  4.774443
C    -1.783973  -2.724455  5.488150
H    0.316546  -2.664523  5.188581
H    -1.559157  -3.616772  6.080233
H    -2.587667  -2.976895  4.790349
H    -2.110894  -1.928288  6.168127
Cd    1.221731  -1.398744  1.142393
