34
Energy: -172327.971925 eV PBE+vdW (tier 2 basis)
C    -1.445501  4.299177  -0.011985
C    -1.014808  3.472465  1.160826
O    0.215842  3.180425  1.253460
H    -1.136503  3.786520  -0.933149
H    -0.911174  5.258326  0.010055
H    -2.524412  4.484035  -0.046642
N    -1.970036  3.085314  2.025461
C    -1.941095  2.128203  3.155451
C    -1.313150  2.752049  4.412865
O    -0.064869  2.992043  4.518078
H    -2.894743  3.441445  1.802374
H    -3.001193  1.960920  3.380125
C    -1.334765  0.738066  2.848183
C    -2.234975  -0.217802  2.046787
C    -2.469556  0.122635  0.569948
C    -3.221706  -1.002590  -0.174596
N    -2.453597  -2.212649  -0.284671
H    -1.121437  0.266902  3.820031
H    -0.365085  0.836189  2.333618
H    -3.202566  -0.316770  2.566108
H    -1.769597  -1.213243  2.099712
H    -1.508557  0.308900  0.061938
H    -3.067908  1.038322  0.454206
H    -3.498322  -0.618204  -1.177915
H    -4.163634  -1.237035  0.339324
H    -1.632194  -2.205502  -0.884297
H    -2.953237  -3.097075  -0.296929
N    -2.083567  3.024626  5.456183
C    -3.533460  2.851219  5.613679
H    -1.575987  3.399971  6.258802
H    -3.812754  1.790553  5.602442
H    -4.087767  3.402139  4.844768
H    -3.811760  3.264760  6.586996
Cd    1.448925  2.770677  2.990278
