34
Energy: -172328.194651 eV PBE+vdW (tier 2 basis)
C    -0.038461  0.771130  -0.707004
C    -0.411416  1.557330  0.509473
O    -0.020253  2.760310  0.593631
H    -0.423558  1.296625  -1.592194
H    -0.427655  -0.252592  -0.699115
H    1.054957  0.749211  -0.802932
N    -1.164165  0.951770  1.447030
C    -1.843619  1.583400  2.589677
C    -0.906352  1.600921  3.815779
O    0.034987  2.453918  3.906062
H    -1.391015  -0.024317  1.273392
H    -1.996311  2.642874  2.324474
C    -3.231335  0.958138  2.809458
C    -4.207429  1.246831  1.653732
C    -5.672508  0.892305  1.950359
C    -5.977788  -0.613537  2.015044
N    -7.376250  -0.860337  2.197039
H    -3.643628  1.381884  3.737947
H    -3.132772  -0.129933  2.969798
H    -3.880560  0.732898  0.735991
H    -4.166489  2.323605  1.428170
H    -6.291100  1.338526  1.157212
H    -5.996058  1.361637  2.891565
H    -5.441003  -1.110313  2.837190
H    -5.611288  -1.089787  1.076539
H    -7.682967  -1.749844  2.577946
H    -8.045601  -0.404697  1.582534
N    -1.070420  0.713754  4.780954
C    -0.221144  0.639147  5.976135
H    -1.840797  0.056779  4.701236
H    0.815694  0.425674  5.691302
H    -0.597118  -0.162757  6.615939
H    -0.253617  1.589554  6.521383
Cd    0.559865  3.907131  2.357027
