34
Energy: -172328.369291 eV PBE+vdW (tier 2 basis)
C    2.405154  1.685104  2.346531
C    1.342279  1.540415  3.409229
O    1.223394  2.644057  4.114092
H    2.009455  2.261899  1.497992
H    2.759328  0.706073  2.006673
H    3.257411  2.247392  2.742927
N    0.683503  0.407613  3.485672
C    -0.465921  0.199369  4.367881
C    -0.095885  -0.077397  5.850615
O    -0.120927  0.862765  6.728473
H    0.587305  -0.359789  1.990554
H    -1.092780  1.119991  4.434108
C    -1.407558  -0.866363  3.761727
C    -0.801599  -2.259425  3.433670
C    -0.916204  -2.703046  1.960927
C    0.254245  -2.301445  1.073118
N    0.432293  -0.802418  0.996294
H    -1.828876  -0.415429  2.851065
H    -2.267049  -0.982926  4.435771
H    -1.307758  -3.013949  4.049180
H    0.268909  -2.300621  3.698509
H    -1.868283  -2.356843  1.528418
H    -0.959239  -3.800084  1.914521
H    0.123705  -2.673117  0.049642
H    1.201038  -2.700118  1.460421
H    1.235937  -0.563047  0.403950
H    -0.391499  -0.359303  0.572004
N    0.221136  -1.290716  6.253790
C    0.574710  -1.634912  7.636090
H    0.183401  -2.040648  5.569685
H    1.321433  -0.930421  8.017415
H    0.985938  -2.647431  7.643313
H    -0.313663  -1.596238  8.278655
Cd    0.080666  2.781006  5.841089
