34
Energy: -172327.205625 eV PBE+vdW (tier 2 basis)
C    -0.091975  1.255444  -0.283653
C    -0.123282  0.821942  1.149970
O    0.942428  0.713727  1.864735
H    0.354042  2.258329  -0.354590
H    -1.087144  1.292145  -0.738722
H    0.524450  0.554566  -0.865399
N    -1.290331  0.537335  1.698181
C    -1.539311  0.081808  3.073012
C    -2.843014  -0.733040  2.929575
O    -3.645606  -0.398591  2.055021
H    -2.153473  0.587191  1.141560
H    -0.693917  -0.542361  3.391807
C    -1.684453  1.309787  4.010826
C    -1.955805  1.022896  5.500783
C    -3.444107  0.979505  5.875949
C    -3.673450  0.533983  7.346415
N    -3.562113  -0.890900  7.539673
H    -2.466816  1.964548  3.599091
H    -0.739046  1.863456  3.927005
H    -1.485140  1.826580  6.084374
H    -1.440442  0.102173  5.811415
H    -4.026526  0.325767  5.210221
H    -3.880245  1.982686  5.770508
H    -4.693907  0.854361  7.628087
H    -2.963432  1.042248  8.009882
H    -3.003501  -1.227860  8.320838
H    -4.401087  -1.446644  7.384501
N    -3.094976  -1.802601  3.731468
C    -2.338228  -2.340253  4.832491
H    -3.987897  -2.246354  3.511842
H    -2.501993  -3.422357  4.893192
H    -2.667240  -1.892286  5.805880
H    -1.266177  -2.146407  4.722577
Cd    2.992721  1.122738  1.200974
