34
Energy: -172327.57695 eV PBE+vdW (tier 2 basis)
C    -1.406392  -1.400830  0.624728
C    -0.292432  -0.479526  0.983274
O    0.901732  -0.783483  0.671895
H    -1.082605  -2.426146  0.852325
H    -1.582693  -1.372994  -0.461167
H    -2.333500  -1.184257  1.163194
N    -0.526744  0.678614  1.652036
C    -1.558035  1.660005  1.298509
C    -1.141875  2.257615  -0.066216
O    0.094844  2.360043  -0.371848
H    0.319153  1.106665  2.032732
H    -2.523003  1.144388  1.212947
C    -1.614605  2.717757  2.425695
C    -2.717573  3.777561  2.336592
C    -2.685261  4.705193  3.562995
C    -3.775766  5.786641  3.553009
N    -5.099420  5.260353  3.729807
H    -0.630921  3.214632  2.476369
H    -1.727987  2.149443  3.361397
H    -3.705955  3.296505  2.272674
H    -2.595934  4.387434  1.427589
H    -1.713137  5.216070  3.622073
H    -2.773727  4.111319  4.487026
H    -3.754845  6.372134  2.622273
H    -3.536573  6.508263  4.366216
H    -5.286812  4.702821  4.560645
H    -5.887679  5.831509  3.436227
N    -2.044755  2.694000  -0.934368
C    -3.504949  2.724016  -0.851006
H    -1.637058  3.080996  -1.787930
H    -3.865186  2.116660  -0.017867
H    -3.917523  2.324754  -1.784707
H    -3.859027  3.753810  -0.720354
Cd    1.858889  0.985077  -0.286313
