34
Energy: -172327.523103 eV PBE+vdW (tier 2 basis)
C    0.865504  -0.623084  0.038366
C    -0.370902  -0.857436  0.839194
O    -1.582793  -0.652587  0.338035
H    0.888940  -1.300328  -0.829205
H    1.759022  -0.808236  0.640367
H    0.893200  0.409261  -0.335747
N    -0.333304  -1.188507  2.083338
C    -1.323295  -1.704030  2.966184
C    -2.080724  -0.530275  3.646266
O    -1.492205  0.523254  3.951725
H    1.280905  1.167202  5.305570
H    -2.034270  -2.342668  2.420071
C    -0.634728  -2.604946  4.051730
C    0.367918  -1.900370  4.976782
C    -0.257915  -1.309086  6.258246
C    0.449038  -0.082181  6.817092
N    0.401908  1.080617  5.826076
H    -0.132609  -3.401816  3.488649
H    -1.429679  -3.092980  4.634380
H    0.896703  -1.133552  4.390031
H    1.140753  -2.625452  5.264931
H    -0.255585  -2.066540  7.054519
H    -1.317866  -1.057873  6.104618
H    1.504964  -0.269688  7.044834
H    -0.038625  0.265707  7.734215
H    -0.367516  0.932800  5.109664
H    0.247709  1.974885  6.304446
N    -3.383047  -0.714952  3.906427
C    -4.228879  -1.868018  3.591356
H    -3.831974  0.085761  4.347170
H    -5.218698  -1.685247  4.019150
H    -3.838253  -2.791254  4.035472
H    -4.346184  -2.000447  2.508032
Cd    -2.158827  -0.516128  -1.700020
