34
Energy: -172329.41028 eV PBE+vdW (tier 2 basis)
C    0.960807  0.597440  0.898084
C    0.230385  0.664303  2.197889
O    0.622268  1.482181  3.081805
H    0.975886  1.597849  0.444950
H    0.522205  -0.115185  0.191721
H    2.006397  0.321484  1.092345
N    -0.833784  -0.155720  2.374565
C    -1.676843  -0.108865  3.564470
C    -1.039039  -0.927769  4.713658
O    -0.330904  -0.304981  5.573735
H    -1.096359  -0.758968  1.599485
H    -1.577754  0.928751  3.905409
C    -3.187765  -0.187815  3.315318
C    -4.022521  0.187557  4.567952
C    -3.452107  1.244748  5.543798
C    -3.074534  2.628189  4.977202
N    -1.811681  3.168564  5.621275
H    -3.509672  -1.168112  2.944355
H    -3.388011  0.523286  2.499620
H    -4.201208  -0.715302  5.168828
H    -5.014578  0.502603  4.217957
H    -2.576839  0.820186  6.063540
H    -4.193949  1.381770  6.341798
H    -3.878577  3.356916  5.148017
H    -2.895343  2.615287  3.893354
H    -1.948922  3.235838  6.636574
H    -1.648117  4.130682  5.303253
N    -1.174758  -2.238872  4.820277
C    -1.905343  -3.177245  3.964663
H    -0.685047  -2.639733  5.622117
H    -1.428995  -4.158169  4.056207
H    -1.855702  -2.878605  2.913644
H    -2.952685  -3.267278  4.279786
Cd    -0.063492  1.831246  5.140434
