34
Energy: -172327.336653 eV PBE+vdW (tier 2 basis)
C    -1.251175  0.594173  0.136964
C    -0.857945  0.346034  1.564613
O    0.289622  0.007555  1.889377
H    -0.760915  1.516944  -0.204843
H    -2.331199  0.688761  -0.018417
H    -0.856983  -0.218472  -0.485019
N    -1.837770  0.521302  2.514529
C    -1.738228  0.171654  3.923786
C    -0.762629  1.096038  4.713714
O    -1.267217  1.623255  5.760316
H    -2.743800  0.848919  2.192686
H    -2.724812  0.380627  4.355030
C    -1.386915  -1.310524  4.239778
C    -2.455208  -2.326587  3.797221
C    -2.395362  -2.833870  2.343727
C    -1.210905  -3.766615  2.037053
N    -1.302071  -5.032749  2.683896
H    -1.283857  -1.367908  5.333147
H    -0.399378  -1.549279  3.823540
H    -3.457969  -1.909009  3.976530
H    -2.378327  -3.195581  4.468432
H    -2.361086  -2.004800  1.624792
H    -3.330493  -3.370691  2.121899
H    -0.234656  -3.318233  2.274066
H    -1.195787  -3.918005  0.930018
H    -0.466912  -5.586596  2.854031
H    -2.177052  -5.552585  2.665052
N    0.470410  1.222667  4.274973
C    1.523169  2.025470  4.880379
H    0.653769  0.711007  3.377050
H    2.419078  1.940839  4.257208
H    1.783802  1.656240  5.883956
H    1.247957  3.090676  4.917197
Cd    -0.551765  2.950105  7.361707
