34
Energy: -172328.151494 eV PBE+vdW (tier 2 basis)
C    -0.603195  0.017571  0.457786
C    -1.350291  -0.297036  1.712102
O    -2.151853  -1.292897  1.675811
H    0.042400  0.897030  0.554530
H    -1.314275  0.165607  -0.365185
H    0.014247  -0.853114  0.192733
N    -1.132111  0.463380  2.795342
C    -1.516903  0.181834  4.185336
C    -2.925754  0.732475  4.499773
O    -3.965525  -0.046556  4.383640
H    -0.456258  1.214465  2.672751
H    -1.621141  -0.914780  4.253511
C    -0.407935  0.561721  5.231617
C    0.890219  1.261605  4.764833
C    1.035545  2.771714  5.008844
C    0.082770  3.737799  4.303270
N    -1.222153  3.880972  5.004762
H    -0.126198  -0.387170  5.701653
H    -0.879148  1.146522  6.030141
H    1.127114  1.027738  3.712908
H    1.711197  0.779332  5.312052
H    2.056153  3.044260  4.705388
H    1.003070  2.969141  6.093091
H    -0.125183  3.423901  3.266428
H    0.570341  4.720904  4.224924
H    -1.051074  4.139787  5.981695
H    -1.737291  4.669576  4.601811
N    -3.083422  1.959945  4.899200
C    -4.399768  2.528391  5.200514
H    -2.221170  2.674185  4.968970
H    -5.081329  2.420127  4.348032
H    -4.268181  3.589707  5.430084
H    -4.844674  2.027792  6.069588
Cd    -3.714223  -1.666929  3.070068
