34
Energy: -172327.993956 eV PBE+vdW (tier 2 basis)
C    -0.420901  0.562381  -0.105580
C    -0.309029  0.489866  1.384188
O    0.761288  0.887901  1.928792
H    0.407920  0.001204  -0.556422
H    -0.302452  1.609683  -0.416188
H    -1.373081  0.178628  -0.487390
N    -1.361770  0.010383  2.076942
C    -1.501860  0.020205  3.535219
C    -0.689918  -1.121420  4.195113
O    0.419293  -0.838090  4.760417
H    -2.174675  -0.263534  1.531752
H    -0.998558  0.932171  3.896779
C    -2.973396  0.141993  3.973769
C    -3.529448  1.560529  3.755522
C    -4.905529  1.812238  4.390487
C    -6.081673  1.098875  3.702501
N    -7.335579  1.467053  4.286540
H    -3.022864  -0.109251  5.044380
H    -3.587398  -0.606941  3.453449
H    -3.567838  1.795653  2.679521
H    -2.825381  2.282148  4.197927
H    -5.092913  2.896246  4.362885
H    -4.892138  1.530340  5.454041
H    -5.993643  0.003716  3.761614
H    -6.062593  1.351558  2.617249
H    -8.137881  0.853943  4.183247
H    -7.560349  2.451233  4.405048
N    -1.090425  -2.384318  4.217890
C    -2.309489  -3.006804  3.698969
H    -0.440868  -3.003907  4.705211
H    -2.099618  -4.069423  3.543155
H    -2.593745  -2.576020  2.734349
H    -3.137717  -2.916501  4.412691
Cd    1.699807  0.722692  3.910065
