34
Energy: -172327.168526 eV PBE+vdW (tier 2 basis)
C    -2.683924  0.914458  0.641321
C    -1.674472  0.828485  1.748373
O    -1.063737  1.923077  2.031964
H    -2.453983  1.771593  0.001997
H    -3.679371  1.080245  1.080944
H    -2.714183  0.000923  0.037806
N    -1.444968  -0.301616  2.390556
C    -2.112398  -1.604854  2.270193
C    -2.018206  -2.152139  3.722218
O    -1.042489  -1.795069  4.395957
H    -0.794967  -0.341755  3.195295
H    -3.149615  -1.459182  1.945944
C    -1.336218  -2.518311  1.284017
C    -1.902218  -3.935298  1.138872
C    -1.054181  -4.895018  0.297351
C    -1.053833  -4.547282  -1.245782
N    -0.355309  -5.503602  -2.021007
H    -0.292740  -2.568192  1.631559
H    -1.320148  -2.003898  0.310486
H    -2.932098  -3.903661  0.749007
H    -1.967903  -4.404013  2.135166
H    -1.449636  -5.913958  0.398848
H    -0.012160  -4.911483  0.647326
H    -0.576208  -3.564109  -1.377958
H    -2.096054  -4.497653  -1.589607
H    -0.825654  -6.320420  -2.400562
H    0.659734  -5.507160  -2.067992
N    -2.943609  -3.009251  4.197051
C    -4.241904  -3.395220  3.657272
H    -2.732768  -3.326061  5.144326
H    -4.403672  -2.958721  2.668828
H    -4.308981  -4.487254  3.570856
H    -5.042003  -3.050742  4.325805
Cd    0.174119  2.648730  3.663658
