34
Energy: -172327.152819 eV PBE+vdW (tier 2 basis)
C    -0.031382  0.041066  -0.655598
C    0.115311  -0.425046  0.754013
O    1.255718  -0.800169  1.205168
H    -1.049851  0.293719  -0.945860
H    0.319021  -0.752245  -1.328015
H    0.612879  0.926917  -0.789370
N    -0.881182  -0.475576  1.652201
C    -2.344005  -0.472528  1.499234
C    -2.784184  -1.700429  0.640133
O    -2.276430  -1.845444  -0.472687
H    -0.551533  -0.787869  2.566142
H    -2.705887  -0.602034  2.527047
C    -2.933356  0.842416  0.939274
C    -4.435877  0.992819  1.219614
C    -4.963018  2.332786  0.681850
C    -6.459978  2.566692  0.980533
N    -7.342314  1.741691  0.226721
H    -2.763063  0.904357  -0.143256
H    -2.382450  1.673066  1.405064
H    -4.618190  0.939167  2.304748
H    -5.000034  0.168417  0.756349
H    -4.794693  2.403605  -0.404307
H    -4.411023  3.168285  1.135566
H    -6.656018  3.638802  0.740994
H    -6.688313  2.449338  2.048541
H    -8.239210  1.464313  0.615303
H    -7.289595  1.742017  -0.789297
N    -3.709726  -2.535692  1.146890
C    -4.304167  -2.553413  2.483450
H    -3.946794  -3.302857  0.520385
H    -4.945736  -3.436825  2.551351
H    -4.929293  -1.671067  2.667545
H    -3.543136  -2.639955  3.270372
Cd    3.253485  -0.299930  0.452821
