34
Energy: -172327.079101 eV PBE+vdW (tier 2 basis)
C    0.137364  -0.142238  -0.490915
C    -0.200203  0.351519  0.879425
O    0.777233  0.619305  1.660762
H    -0.752857  -0.317148  -1.104885
H    0.698913  -1.082593  -0.397796
H    0.798741  0.578546  -0.988412
N    -1.478445  0.470561  1.225993
C    -2.012144  0.788325  2.548429
C    -3.477358  0.274576  2.535709
O    -4.145987  0.431996  1.506261
H    -2.200448  0.254716  0.533303
H    -1.449958  0.200333  3.289971
C    -1.931254  2.293028  2.928166
C    -1.896888  3.344768  1.822930
C    -3.163799  3.524440  0.948438
C    -4.361905  4.081889  1.713465
N    -4.961558  3.132973  2.595134
H    -0.972424  2.438586  3.538318
H    -2.695783  2.516460  3.693758
H    -1.069401  3.131899  1.129402
H    -1.655027  4.309214  2.293561
H    -3.450106  2.585480  0.456669
H    -2.909102  4.231912  0.147881
H    -5.109160  4.400579  0.943734
H    -4.123098  4.998700  2.273548
H    -5.608140  3.472039  3.305093
H    -5.171585  2.207146  2.212990
N    -3.917407  -0.287868  3.668374
C    -5.269535  -0.824746  3.836166
H    -3.264500  -0.418881  4.434842
H    -5.218898  -1.893568  4.074794
H    -5.817398  -0.694809  2.899022
H    -5.787729  -0.301649  4.649148
Cd    1.169710  1.755076  3.464098
