34
Energy: -172328.091985 eV PBE+vdW (tier 2 basis)
C    -0.392479  -0.623386  0.161529
C    -0.256865  -0.674743  1.652513
O    0.629937  -1.442496  2.135720
H    -1.194794  0.037340  -0.183662
H    -0.578623  -1.641375  -0.207347
H    0.561568  -0.298978  -0.274789
N    -1.096648  0.087901  2.374978
C    -1.366272  0.137228  3.830973
C    -0.285620  0.929067  4.589225
O    0.898446  0.501022  4.779015
H    -1.713615  0.667807  1.813816
H    -2.291843  0.725246  3.904870
C    -1.657878  -1.227111  4.500558
C    -3.071529  -1.790306  4.272051
C    -3.402474  -2.279883  2.857137
C    -4.775223  -2.985676  2.790630
N    -4.808520  -4.219227  3.527031
H    -1.523046  -1.083255  5.583495
H    -0.916668  -1.981494  4.190975
H    -3.810903  -1.036827  4.590397
H    -3.194779  -2.634769  4.966193
H    -2.624144  -2.974509  2.499499
H    -3.435628  -1.448937  2.137067
H    -5.014142  -3.158676  1.721028
H    -5.562253  -2.327682  3.182868
H    -5.687409  -4.500890  3.951438
H    -4.258782  -5.000861  3.179171
N    -0.633703  2.100025  5.098753
C    0.265025  2.952020  5.886027
H    -1.577068  2.438148  4.931336
H    -0.331370  3.734523  6.361840
H    1.020219  3.412093  5.236673
H    0.768041  2.353795  6.653181
Cd    1.744219  -1.331947  3.993766
