34
Energy: -172329.971699 eV PBE+vdW (tier 2 basis)
C    0.696047  0.784325  0.418820
C    0.292135  0.131390  1.702133
O    1.215637  -0.248378  2.485486
H    -0.150999  1.080658  -0.208410
H    1.336229  0.090589  -0.143217
H    1.307598  1.667613  0.647136
N    -1.027232  -0.013956  1.934644
C    -1.744332  -0.681699  3.046525
C    -1.627610  0.153776  4.336468
O    -0.560582  0.184761  5.018350
H    -1.624468  0.358398  1.201679
H    -2.799441  -0.654617  2.743264
C    -1.377996  -2.185881  3.166688
C    -1.984759  -2.966004  4.351527
C    -1.180971  -3.058162  5.666560
C    0.194136  -3.750255  5.567027
N    1.363323  -2.797880  5.745891
H    -0.285002  -2.345112  3.106398
H    -1.726172  -2.634955  2.225902
H    -2.167669  -3.991472  4.001136
H    -2.983982  -2.567763  4.583925
H    -1.793703  -3.633120  6.373091
H    -1.069930  -2.071445  6.144110
H    0.334035  -4.241485  4.595153
H    0.295185  -4.527223  6.335524
H    1.393648  -2.485874  6.723508
H    2.242270  -3.306483  5.596351
N    -2.695784  0.851226  4.699316
C    -2.770357  1.732112  5.867031
H    -3.527223  0.787719  4.117495
H    -1.813844  1.711819  6.393279
H    -3.570750  1.390677  6.534007
H    -2.989070  2.755531  5.539516
Cd    1.157821  -1.044265  4.454028
