34
Energy: -172327.300469 eV PBE+vdW (tier 2 basis)
C    -0.064924  0.989929  0.687255
C    -0.554829  -0.228166  1.400209
O    0.209960  -1.293209  1.505493
H    -0.820923  1.779716  0.672402
H    0.225856  0.745423  -0.343211
H    0.826434  1.391887  1.196562
N    -1.782316  -0.296362  1.846924
C    -2.251686  -1.335983  2.710683
C    -2.979936  -2.422123  1.838102
O    -3.517875  -2.099046  0.777862
H    -3.302485  0.444393  0.935196
H    -1.413922  -1.830920  3.222072
C    -3.263931  -0.792859  3.794211
C    -3.790556  0.645552  3.625581
C    -5.145055  0.857086  2.926250
C    -5.335382  0.284133  1.529337
N    -4.249906  0.732884  0.570498
H    -2.708546  -0.841107  4.740305
H    -4.100849  -1.497036  3.909202
H    -3.010169  1.261734  3.150395
H    -3.908117  1.063694  4.634202
H    -5.358912  1.937288  2.913787
H    -5.944414  0.414118  3.539788
H    -6.293585  0.600512  1.100510
H    -5.297309  -0.809461  1.510140
H    -4.369952  0.278542  -0.343072
H    -4.268438  1.750674  0.432765
N    -3.000847  -3.676903  2.322060
C    -2.380657  -4.203564  3.535817
H    -3.445588  -4.346913  1.696435
H    -1.291386  -4.301628  3.431106
H    -2.793313  -5.201149  3.715526
H    -2.614754  -3.585088  4.409292
Cd    2.340489  -1.346358  1.632179
