34
Energy: -172327.956696 eV PBE+vdW (tier 2 basis)
C    -1.442074  -0.037590  -0.157499
C    -1.015316  -0.161527  1.273051
O    0.119847  -0.676753  1.507486
H    -2.439109  0.398037  -0.282427
H    -1.426283  -1.037486  -0.612721
H    -0.706353  0.569063  -0.701717
N    -1.879020  0.264653  2.211977
C    -1.888931  0.103906  3.683707
C    -0.969187  1.119636  4.379409
O    0.299447  1.109389  4.250440
H    -2.726801  0.676286  1.832997
H    -2.917420  0.361548  3.963379
C    -1.638495  -1.326999  4.216141
C    -2.795163  -2.325025  4.027677
C    -3.026090  -2.858000  2.608266
C    -4.074501  -3.992514  2.602485
N    -4.296656  -4.528455  1.290376
H    -1.453283  -1.223566  5.296369
H    -0.717142  -1.752927  3.788547
H    -3.723497  -1.876732  4.418051
H    -2.580200  -3.175597  4.692113
H    -2.079853  -3.239980  2.190887
H    -3.383205  -2.071162  1.928159
H    -5.033809  -3.627880  2.993305
H    -3.731278  -4.785618  3.300650
H    -3.542819  -5.040388  0.839872
H    -5.222842  -4.875877  1.060289
N    -1.500485  2.031829  5.180951
C    -2.911873  2.281373  5.501394
H    -0.812602  2.634575  5.634940
H    -3.495349  2.494309  4.597781
H    -2.953819  3.166137  6.142642
H    -3.351127  1.440680  6.052200
Cd    1.521450  -0.265590  3.111487
