34
Energy: -172328.701333 eV PBE+vdW (tier 2 basis)
C    0.073059  -0.736476  -0.218800
C    -0.565018  -0.839878  1.131252
O    -0.220816  -1.787963  1.891104
H    -0.302694  0.097480  -0.820723
H    -0.090253  -1.677141  -0.761234
H    1.158361  -0.628816  -0.087786
N    -1.485451  0.099078  1.450739
C    -2.302444  0.221069  2.675193
C    -1.392897  0.629871  3.854911
O    -0.651504  -0.201486  4.464119
H    -1.655175  0.798505  0.734227
H    -2.971489  1.066136  2.481992
C    -3.198754  -1.033526  2.903040
C    -3.698606  -1.265160  4.341616
C    -4.270778  -2.663464  4.613111
C    -3.397871  -3.884716  4.330995
N    -3.613011  -4.969803  5.101864
H    -2.671232  -1.919686  2.515082
H    -4.057229  -0.934592  2.223933
H    -2.901522  -1.074442  5.078299
H    -4.483926  -0.534845  4.580931
H    -5.178918  -2.825711  4.007695
H    -4.595747  -2.700053  5.662618
H    -2.085214  -3.440597  4.524906
H    -3.268959  -4.147169  3.275641
H    -3.325551  -5.897891  4.805528
H    -3.909190  -4.879278  6.070151
N    -1.367786  1.902506  4.232822
C    -2.087616  3.053528  3.675054
H    -0.718154  2.091535  4.997221
H    -1.776252  3.260242  2.643586
H    -1.838698  3.927504  4.283250
H    -3.173800  2.910427  3.723897
Cd    -0.718822  -2.320455  3.954902
