34
Energy: -172328.02703 eV PBE+vdW (tier 2 basis)
C    0.394599  0.936594  0.436743
C    0.093866  0.824697  1.897232
O    0.847455  1.444890  2.710021
H    -0.293162  0.360732  -0.191639
H    0.337625  1.997041  0.151898
H    1.426786  0.613125  0.250922
N    -0.969654  0.090291  2.269442
C    -1.643780  0.072506  3.574854
C    -1.053137  -1.026826  4.484118
O    0.120856  -0.899771  4.971180
H    -1.485490  -0.349480  1.511222
H    -1.361545  1.007703  4.088066
C    -3.185578  0.143205  3.396302
C    -3.883098  -0.634102  2.263743
C    -3.990199  -2.160594  2.374725
C    -4.911360  -2.769755  1.292074
N    -6.276321  -2.331023  1.418703
H    -3.408052  1.206882  3.232564
H    -3.648648  -0.094623  4.366246
H    -3.454493  -0.364509  1.282122
H    -4.906620  -0.233475  2.217491
H    -4.403497  -2.438858  3.362267
H    -3.010245  -2.655319  2.274944
H    -4.834453  -3.873067  1.359486
H    -4.550199  -2.491380  0.292790
H    -6.822820  -2.240524  0.567224
H    -6.819084  -2.692092  2.199636
N    -1.759707  -2.096613  4.791378
C    -1.288730  -3.168720  5.674332
H    -2.679243  -2.195683  4.368906
H    -2.149879  -3.770080  5.976856
H    -0.811755  -2.736411  6.559916
H    -0.562458  -3.804865  5.152928
Cd    1.367693  0.862384  4.728343
