34
Energy: -172327.148566 eV PBE+vdW (tier 2 basis)
C    0.056026  0.542657  0.938910
C    -0.269198  0.045887  2.311287
O    0.649869  -0.342104  3.121277
H    0.664467  1.455398  1.021334
H    -0.821653  0.772881  0.329798
H    0.653133  -0.215599  0.414982
N    -1.515210  -0.034686  2.761179
C    -2.789156  0.199110  2.067119
C    -3.757367  0.590915  3.212580
O    -3.782522  -0.130490  4.212432
H    -1.639460  -0.402131  3.712498
H    -2.664579  1.015027  1.346281
C    -3.258837  -1.093665  1.358191
C    -4.626491  -1.046116  0.656095
C    -5.894921  -1.160993  1.510299
C    -5.980836  -2.529667  2.303973
N    -7.236702  -2.728299  2.920123
H    -3.226139  -1.906951  2.098857
H    -2.494606  -1.338518  0.605962
H    -4.635177  -1.849802  -0.094779
H    -4.715545  -0.116473  0.067858
H    -6.768477  -1.101423  0.847385
H    -5.993523  -0.355334  2.248666
H    -5.199251  -2.555381  3.072140
H    -5.807392  -3.331375  1.565315
H    -8.054897  -2.995142  2.379109
H    -7.387883  -2.525238  3.903596
N    -4.539047  1.681832  3.065243
C    -4.536738  2.669019  1.987624
H    -5.111586  1.882396  3.883825
H    -5.370152  3.357095  2.156360
H    -4.687824  2.198337  1.008315
H    -3.610309  3.259950  1.973040
Cd    2.806173  -0.026911  3.169628
