34
Energy: -172328.729687 eV PBE+vdW (tier 2 basis)
C    -0.727364  -1.368063  0.287702
C    -0.987161  -1.034744  1.712964
O    -0.499206  -1.848077  2.615976
H    -1.054990  -0.582835  -0.399474
H    -1.207461  -2.320887  0.024456
H    0.354761  -1.524651  0.166416
N    -1.652224  0.034485  2.098719
C    -2.631875  0.902971  1.432793
C    -2.876234  1.993074  2.519210
O    -2.627043  1.688482  3.700743
H    -1.650469  0.327214  3.103534
H    -2.210166  1.336708  0.516007
C    -3.953903  0.150382  1.096425
C    -4.816238  -0.353648  2.276527
C    -4.058923  -1.313948  3.203376
C    -4.770246  -2.080613  4.318297
N    -3.714098  -2.828787  5.126892
H    -3.706137  -0.689755  0.428781
H    -4.569448  0.832398  0.493655
H    -5.692933  -0.862894  1.850919
H    -5.197218  0.491415  2.867180
H    -3.303920  -0.683212  3.717304
H    -3.565034  -2.067889  2.551700
H    -5.482604  -2.815839  3.926944
H    -5.301404  -1.402751  4.996551
H    -3.710506  -2.507655  6.101440
H    -3.926564  -3.831695  5.168473
N    -3.385020  3.154628  2.109926
C    -3.714949  4.264931  3.005614
H    -3.499967  3.307079  1.111877
H    -4.776034  4.523185  2.908943
H    -3.106526  5.141076  2.752336
H    -3.501294  3.960029  4.032926
Cd    -1.766208  -2.429753  4.148116
