34
Energy: -172328.083323 eV PBE+vdW (tier 2 basis)
C    -0.422928  -1.297259  -0.131540
C    -0.407640  -0.749934  1.260181
O    0.657810  -0.218845  1.688692
H    -0.223728  -0.475564  -0.833628
H    -1.371920  -1.774896  -0.397894
H    0.396584  -2.018669  -0.244112
N    -1.537685  -0.841755  1.990127
C    -1.766681  -0.211223  3.292623
C    -1.062959  -0.992184  4.430080
O    0.000371  -0.507469  4.942295
H    -2.342085  -1.257338  1.527278
H    -1.241808  0.758215  3.282180
C    -3.260602  0.101742  3.493645
C    -3.579551  0.782581  4.831744
C    -5.061781  1.167450  4.933671
C    -5.401417  1.859632  6.265628
N    -6.781507  2.228717  6.346407
H    -3.864915  -0.809481  3.379169
H    -3.548359  0.767257  2.665170
H    -2.954667  1.683327  4.945094
H    -3.314965  0.117717  5.670500
H    -5.697710  0.274976  4.834389
H    -5.326386  1.837272  4.099952
H    -4.748976  2.755279  6.376790
H    -5.169691  1.208343  7.120606
H    -7.225451  2.309274  7.255813
H    -7.192191  2.803305  5.615704
N    -1.511448  -2.146304  4.904486
C    -2.703596  -2.919605  4.552224
H    -0.927654  -2.529526  5.649561
H    -2.538480  -3.951274  4.877134
H    -2.864166  -2.930357  3.470153
H    -3.595718  -2.534613  5.062204
Cd    1.443456  0.487369  3.616128
