34
Energy: -172327.62721 eV PBE+vdW (tier 2 basis)
C    0.298580  1.302161  1.370769
C    -0.377473  1.549324  2.675752
O    -0.341904  2.710253  3.192333
H    1.237553  1.871166  1.359045
H    -0.314254  1.707711  0.550800
H    0.503774  0.243460  1.186015
N    -1.020792  0.549978  3.330117
C    -1.946565  -0.394309  2.705986
C    -3.276212  0.374692  2.449032
O    -3.515989  1.510422  2.969289
H    -1.270381  0.786368  4.291933
H    -1.531607  -0.691109  1.731250
C    -2.165819  -1.648685  3.576773
C    -0.998378  -2.650448  3.630053
C    0.189657  -2.271705  4.524379
C    1.201649  -3.434585  4.625712
N    2.298396  -3.144206  5.494694
H    -3.044459  -2.176551  3.180286
H    -2.455627  -1.331855  4.592842
H    -0.648740  -2.857772  2.605493
H    -1.420168  -3.599467  3.993663
H    -0.170959  -2.021692  5.535532
H    0.723213  -1.388744  4.144970
H    1.601914  -3.695353  3.636617
H    0.652583  -4.333962  4.985181
H    3.210737  -3.547303  5.303835
H    2.121959  -2.925264  6.471517
N    -4.181133  -0.199915  1.672597
C    -5.487931  0.387035  1.354081
H    -3.979193  -1.123919  1.299623
H    -5.361213  1.418682  1.008701
H    -6.136623  0.381041  2.238609
H    -5.948306  -0.208080  0.561415
Cd    -2.418859  3.304281  3.735879
