35
Energy: -105404.701788 eV PBE+vdW (tier 2 basis)
C    0.086724  0.673750  0.222430
C    -0.219150  0.554831  1.676710
O    0.501250  1.235841  2.524235
H    0.002564  1.725395  -0.084936
H    -0.571111  0.070519  -0.408257
H    1.126172  0.365255  0.043062
N    -1.181827  -0.202147  2.144253
C    -2.203130  -1.033455  1.481301
C    -3.333920  -1.032867  2.558244
O    -2.993382  -0.935347  3.740817
H    -1.374402  -0.240585  3.168671
H    -2.529913  -0.556597  0.547269
C    -1.632173  -2.458246  1.249509
C    -2.575049  -3.558722  0.723355
C    -3.050106  -3.400906  -0.734877
C    -3.330866  -4.707284  -1.476856
N    -4.497461  -5.508107  -0.902948
H    -1.229994  -2.798619  2.214681
H    -0.771349  -2.369262  0.568230
H    -3.431907  -3.666070  1.406405
H    -1.997745  -4.493187  0.810426
H    -2.261477  -2.919372  -1.334490
H    -3.924168  -2.734297  -0.812040
H    -2.466785  -5.383214  -1.446951
H    -3.588060  -4.523699  -2.526820
H    -4.637979  -6.379790  -1.436151
H    -5.381837  -4.982114  -0.946791
H    -4.339159  -5.776413  0.078436
N    -4.597608  -1.174373  2.128579
C    -5.743795  -1.171314  3.044563
H    -4.783674  -1.073908  1.136279
H    -6.561060  -1.748912  2.601820
H    -6.090635  -0.147821  3.237019
H    -5.443240  -1.627121  3.992200
Sr    1.722126  2.484974  3.828160
