35
Energy: -105405.779416 eV PBE+vdW (tier 2 basis)
C    -0.486819  0.025741  0.178867
C    -0.086837  -0.002011  1.619298
O    1.131631  -0.126915  1.943512
H    -0.125321  -0.892262  -0.305830
H    0.017079  0.863611  -0.322935
H    -1.566199  0.115926  0.018798
N    -1.061966  0.113073  2.540536
C    -0.996434  0.031539  4.018213
C    -0.130882  1.147817  4.646752
O    1.130612  1.168969  4.516730
H    -1.994622  0.245546  2.158836
H    -2.031319  0.225001  4.333553
C    -0.604560  -1.367093  4.554845
C    -1.693328  -2.439716  4.347196
C    -1.254967  -3.813175  4.891746
C    -2.191878  -4.992222  4.623687
N    -3.400697  -5.050985  5.555040
H    -0.393787  -1.260794  5.630135
H    0.334473  -1.691416  4.083383
H    -1.923650  -2.535432  3.274553
H    -2.620612  -2.100985  4.839628
H    -1.029083  -3.752894  5.969274
H    -0.303622  -4.098529  4.417110
H    -1.668353  -5.943240  4.777067
H    -2.596024  -4.987471  3.603540
H    -3.114010  -5.121828  6.542649
H    -3.978225  -5.881115  5.349821
H    -4.013537  -4.229348  5.465885
N    -0.765710  2.056915  5.370205
C    -0.122974  3.159454  6.093385
H    -1.780637  2.010678  5.417180
H    0.874935  2.853559  6.418960
H    -0.733640  3.406495  6.967149
H    -0.048249  4.045560  5.449501
Sr    2.894216  0.717549  3.120734
