35
Energy: -105404.329109 eV PBE+vdW (tier 2 basis)
C    0.404821  0.105444  0.100589
C    -0.060250  -0.638467  1.311697
O    0.440225  -1.800465  1.581334
H    1.484898  0.298361  0.177650
H    -0.099490  1.068199  -0.035931
H    0.233993  -0.502308  -0.799492
N    -0.978654  -0.076883  2.083468
C    -1.540459  -0.561482  3.354250
C    -2.893375  -1.312787  3.263182
O    -3.062964  -2.230519  4.087974
H    -1.274637  0.851828  1.786777
H    -0.849578  -1.321798  3.736302
C    -1.599231  0.613304  4.365992
C    -2.091323  0.212850  5.771274
C    -3.608918  0.377085  6.014106
C    -4.154898  -0.542871  7.103049
N    -4.442232  -1.940141  6.553300
H    -2.225381  1.425454  3.962768
H    -0.580104  1.017565  4.438724
H    -1.560646  0.832561  6.505478
H    -1.773046  -0.820367  5.978269
H    -4.194917  0.234603  5.092078
H    -3.816332  1.410218  6.324227
H    -5.095832  -0.174552  7.525573
H    -3.441609  -0.664222  7.926932
H    -3.841622  -2.162386  5.720762
H    -5.416987  -2.008377  6.235282
H    -4.314020  -2.666914  7.268558
N    -3.849611  -0.959586  2.386582
C    -3.919988  0.159924  1.444720
H    -4.669722  -1.562924  2.429782
H    -3.584332  1.097514  1.905121
H    -4.969350  0.303958  1.169081
H    -3.360005  -0.038059  0.521274
Sr    1.748305  -3.571387  1.342615
