35
Energy: -105404.295805 eV PBE+vdW (tier 2 basis)
C    -0.219765  0.123417  0.187905
C    -0.375949  -0.787602  1.363662
O    0.549607  -1.659584  1.620856
H    -1.054438  0.822982  0.071149
H    -0.142468  -0.470875  -0.734116
H    0.704989  0.709122  0.289559
N    -1.462624  -0.683231  2.108748
C    -1.869207  -1.458098  3.295168
C    -3.324505  -2.024959  3.110838
O    -4.183146  -1.737438  3.937896
H    -2.114161  0.043838  1.814551
H    -1.169635  -2.301217  3.375589
C    -1.801021  -0.617950  4.585382
C    -2.593197  0.709712  4.567835
C    -3.170776  1.129207  5.936547
C    -4.440205  0.362115  6.304635
N    -5.034818  0.885939  7.607365
H    -0.745794  -0.415746  4.818447
H    -2.172624  -1.282264  5.376234
H    -3.428328  0.654727  3.854962
H    -1.937751  1.522621  4.226545
H    -3.401914  2.204897  5.892071
H    -2.407000  1.004671  6.721431
H    -4.275828  -0.711192  6.450235
H    -5.223563  0.477137  5.546190
H    -4.380938  0.784490  8.396935
H    -5.897328  0.379668  7.855988
H    -5.276212  1.885649  7.539002
N    -3.575394  -2.822727  2.045841
C    -2.662561  -3.368071  1.053291
H    -4.543362  -3.138839  2.006713
H    -3.082278  -4.304103  0.670600
H    -1.688474  -3.607415  1.501746
H    -2.519165  -2.689930  0.198610
Sr    2.465763  -2.733470  1.422539
