35
Energy: -105405.602747 eV PBE+vdW (tier 2 basis)
C    0.250346  -0.912338  0.038695
C    -0.187826  -0.553927  1.416461
O    0.586729  0.046921  2.221644
H    -0.515073  -1.439304  -0.540241
H    1.154459  -1.534643  0.092700
H    0.533142  0.007098  -0.494396
N    -1.436406  -0.872733  1.812749
C    -1.974455  -0.439699  3.107857
C    -1.218505  -1.122737  4.281883
O    -0.466715  -0.364470  4.979396
H    -2.049042  -1.318615  1.135111
H    -1.650413  0.603980  3.227775
C    -3.523087  -0.341429  3.152845
C    -4.410271  -1.578139  2.924191
C    -5.892951  -1.254203  2.616454
C    -6.695909  -0.736373  3.810733
N    -8.172397  -0.601137  3.458699
H    -3.772774  0.420770  2.397024
H    -3.756931  0.119230  4.124271
H    -4.362954  -2.256500  3.787227
H    -4.053293  -2.159340  2.060876
H    -6.358010  -2.184117  2.253793
H    -5.948380  -0.531647  1.786408
H    -6.378432  0.257606  4.148402
H    -6.654260  -1.423966  4.665099
H    -8.324959  0.057359  2.680111
H    -8.721343  -0.256551  4.261140
H    -8.581680  -1.504961  3.176750
N    -1.269440  -2.417189  4.562133
C    -1.890127  -3.540379  3.859479
H    -0.721053  -2.671215  5.386395
H    -1.147579  -4.341511  3.763951
H    -2.210938  -3.248526  2.858932
H    -2.743154  -3.928879  4.428658
Sr    1.412394  0.789065  4.237258
