35
Energy: -105403.853508 eV PBE+vdW (tier 2 basis)
C    -0.277891  0.858452  0.370217
C    -0.153701  -0.139344  1.486872
O    0.922789  -0.674050  1.764997
H    -1.295738  1.084742  0.037405
H    0.312784  0.524287  -0.489786
H    0.185072  1.796026  0.715010
N    -1.250861  -0.426007  2.296005
C    -2.633745  -0.564400  1.845860
C    -3.598603  -0.014505  2.916244
O    -4.577171  -0.737579  3.367516
H    -0.979615  -1.052933  3.054756
H    -2.761678  0.102778  0.977919
C    -2.965011  -2.003991  1.382100
C    -2.001834  -2.528485  0.288638
C    -0.751270  -3.271320  0.816128
C    0.428479  -3.248219  -0.173125
N    1.745538  -3.059831  0.553322
H    -3.988808  -2.003277  0.979309
H    -2.957184  -2.686695  2.247323
H    -1.697035  -1.685975  -0.351843
H    -2.562578  -3.198024  -0.376088
H    -1.011914  -4.309898  1.060424
H    -0.415470  -2.814121  1.756005
H    0.358051  -2.401626  -0.866932
H    0.507212  -4.164108  -0.768905
H    2.536558  -3.016427  -0.104343
H    1.940984  -3.827070  1.210216
H    1.705086  -2.159206  1.089805
N    -3.447884  1.208521  3.383589
C    -2.484070  2.249393  2.994639
H    -4.103302  1.477274  4.117308
H    -2.879052  3.209758  3.338881
H    -2.373793  2.288104  1.907072
H    -1.510866  2.067780  3.464591
Sr    -6.393805  -1.782037  4.063418
