35
Energy: -105405.216180 eV PBE+vdW (tier 2 basis)
C    0.558146  2.160359  0.269269
C    0.397192  1.554600  1.618301
O    1.381405  1.441997  2.407918
H    1.276254  1.528082  -0.279280
H    1.022380  3.153445  0.332212
H    -0.366233  2.205277  -0.312817
N    -0.811257  1.072538  2.027249
C    -2.048339  1.859417  1.976607
C    -1.821468  3.089694  2.907158
O    -0.918911  3.016964  3.810091
H    -0.730237  0.521642  2.883311
H    -2.202523  2.210475  0.947175
C    -3.229268  0.927564  2.374584
C    -4.643684  1.445950  2.058780
C    -5.742696  0.361223  1.967619
C    -6.165547  -0.256866  3.299702
N    -7.363049  -1.180759  3.109695
H    -3.132590  0.668628  3.441349
H    -3.051710  0.001939  1.805901
H    -4.634906  1.930925  1.072759
H    -4.949959  2.217407  2.780905
H    -5.417000  -0.430600  1.274054
H    -6.621816  0.837334  1.505617
H    -6.485132  0.501767  4.025546
H    -5.383223  -0.872757  3.759826
H    -7.661073  -1.604894  4.001279
H    -7.154100  -1.952861  2.458914
H    -8.176270  -0.674328  2.727282
N    -2.510990  4.210327  2.760246
C    -3.473385  4.615527  1.731010
H    -2.287583  4.927232  3.453387
H    -3.224004  5.632764  1.408275
H    -4.492909  4.618368  2.134284
H    -3.423887  3.954923  0.862232
Sr    1.305632  2.580822  4.434605
