35
Energy: -105404.428696 eV PBE+vdW (tier 2 basis)
C    1.572219  0.632989  1.161553
C    0.657472  -0.447798  1.652751
O    1.002714  -1.633891  1.776101
H    1.093730  1.614107  1.071267
H    2.430773  0.719330  1.841467
H    1.975286  0.336813  0.183624
N    -0.629329  -0.079364  1.965884
C    -1.582402  -1.043034  2.510954
C    -2.933639  -0.853118  1.816888
O    -3.976939  -0.443376  2.471804
H    -0.860513  0.909737  1.953143
H    -1.194824  -2.022096  2.178949
C    -1.645688  -1.054741  4.050129
C    -0.309923  -1.450042  4.710113
C    0.038355  -2.951666  4.637598
C    1.522495  -3.256794  4.871725
N    2.317702  -3.258999  3.573697
H    -2.432455  -1.759437  4.366194
H    -1.933568  -0.054528  4.410219
H    -0.352323  -1.154720  5.767441
H    0.493775  -0.838637  4.275282
H    -0.269695  -3.397809  3.678603
H    -0.531152  -3.492124  5.405934
H    1.670420  -4.242881  5.325005
H    1.991062  -2.514540  5.529316
H    2.217554  -4.160240  3.088592
H    3.322720  -3.128220  3.748089
H    1.983094  -2.524019  2.897714
N    -3.046688  -1.105426  0.527684
C    -2.023468  -1.585207  -0.410623
H    -3.962399  -0.918886  0.117814
H    -2.523791  -2.177471  -1.183285
H    -1.287227  -2.213195  0.099037
H    -1.516487  -0.734515  -0.883553
Sr    -5.796943  0.156025  3.563677
