35
Energy: -105404.530430 eV PBE+vdW (tier 2 basis)
C    0.150010  -1.356423  1.386518
C    -0.490275  -0.012316  1.563483
O    0.096647  1.044068  1.270035
H    0.315058  -1.530685  0.314056
H    -0.431496  -2.189394  1.796456
H    1.145349  -1.337402  1.848743
N    -1.768004  0.010473  2.060552
C    -2.526237  1.214915  2.423653
C    -2.888589  2.083907  1.198916
O    -4.123592  2.429856  0.982127
H    -2.232096  -0.880259  2.203982
H    -3.481847  0.847677  2.819654
C    -1.868546  2.115644  3.507711
C    -1.482616  1.445136  4.846218
C    -0.092396  0.767541  4.869851
C    0.686073  0.894493  6.177197
N    0.083719  0.105116  7.338524
H    -2.596855  2.912616  3.720627
H    -0.984731  2.613495  3.087637
H    -2.270210  0.740890  5.158395
H    -1.490415  2.255934  5.591969
H    0.559911  1.243823  4.121935
H    -0.151135  -0.290251  4.570975
H    0.741858  1.934678  6.522940
H    1.708989  0.515165  6.066795
H    0.649545  0.222258  8.192871
H    0.049050  -0.904095  7.135016
H    -0.872260  0.412373  7.564420
N    -1.916939  2.479065  0.420523
C    -2.067926  3.308240  -0.768117
H    -0.963187  2.079533  0.691122
H    -1.079145  3.473213  -1.205560
H    -2.493760  4.288244  -0.509620
H    -2.692248  2.806593  -1.522040
Sr    -6.031554  3.149353  0.191689
