35
Energy: -105403.575983 eV PBE+vdW (tier 2 basis)
C    -1.752023  -1.731925  -0.018900
C    -0.813993  -0.799750  0.707683
O    0.314622  -1.112260  1.045642
H    -2.329354  -1.228930  -0.805376
H    -2.460561  -2.199690  0.681649
H    -1.155752  -2.531326  -0.468769
N    -1.263918  0.500496  1.004152
C    -2.642081  0.833832  1.341487
C    -2.970187  2.176681  0.668903
O    -3.634700  2.159616  -0.449215
H    -0.536974  1.004282  1.511600
H    -3.268198  0.124325  0.789898
C    -3.035100  0.715597  2.862541
C    -1.905311  0.533671  3.900997
C    -1.417597  -0.916423  4.104055
C    -0.284797  -0.966908  5.128686
N    0.262189  -2.377221  5.299112
H    -3.726703  -0.133856  2.945945
H    -3.636097  1.590107  3.147399
H    -2.290064  0.909027  4.860413
H    -1.040512  1.173500  3.668190
H    -1.056060  -1.341139  3.156902
H    -2.260484  -1.537104  4.447047
H    -0.607553  -0.642149  6.125822
H    0.571695  -0.352559  4.823678
H    1.022122  -2.400968  5.995843
H    0.646265  -2.743522  4.415227
H    -0.463816  -3.034792  5.619351
N    -2.582811  3.348042  1.136540
C    -1.815985  3.679919  2.344121
H    -2.854564  4.149019  0.567470
H    -0.965538  3.004922  2.470479
H    -2.454951  3.652881  3.234733
H    -1.426841  4.694919  2.222849
Sr    -4.702843  2.206554  -2.372123
