35
Energy: -105404.438419 eV PBE+vdW (tier 2 basis)
C    -0.771231  -0.167531  -0.035645
C    -0.587304  -0.350234  1.438688
O    0.571189  -0.704987  1.898215
H    -0.548698  -1.110259  -0.556380
H    -0.075762  0.599686  -0.405616
H    -1.787138  0.136051  -0.309823
N    -1.626506  -0.143027  2.227541
C    -1.758795  -0.228109  3.695940
C    -3.178565  -0.809460  3.935029
O    -4.146101  -0.090468  3.613096
H    -2.488123  0.151326  1.761791
H    -0.963083  -0.876044  4.079194
C    -1.709797  1.182587  4.320649
C    -2.052004  1.204707  5.829864
C    -2.896901  2.414029  6.288896
C    -4.411294  2.221767  6.346910
N    -5.091508  2.119493  4.991084
H    -2.414660  1.806259  3.753117
H    -0.716271  1.616977  4.145650
H    -1.116764  1.199170  6.403320
H    -2.572652  0.279423  6.125079
H    -2.645534  3.313392  5.703960
H    -2.615125  2.664582  7.321536
H    -4.882335  3.067612  6.861809
H    -4.680989  1.306520  6.889276
H    -4.746105  1.295000  4.429970
H    -6.108285  2.010680  5.107661
H    -4.947278  2.974747  4.439292
N    -3.325032  -2.030217  4.454976
C    -2.294482  -2.986258  4.866339
H    -4.297113  -2.324249  4.552736
H    -1.717934  -3.351482  4.006456
H    -2.794323  -3.846520  5.320647
H    -1.624994  -2.555419  5.621146
Sr    2.721036  -1.220559  1.703271
