35
Energy: -105404.466850 eV PBE+vdW (tier 2 basis)
C    0.595146  0.615341  0.820615
C    0.305943  -0.171651  2.055375
O    1.281864  -0.643700  2.767508
H    -0.119886  1.430340  0.659512
H    0.541388  -0.046772  -0.059357
H    1.605197  1.033436  0.864418
N    -0.941482  -0.414922  2.430131
C    -2.173941  -0.076502  1.678711
C    -2.675900  1.385197  1.800078
O    -3.162460  1.881007  0.769492
H    -1.055685  -0.966811  3.281192
H    -1.932396  -0.172075  0.613121
C    -3.282690  -1.108984  1.999282
C    -4.536277  -0.970617  1.108344
C    -5.605185  0.011361  1.635679
C    -6.501693  0.635992  0.572669
N    -5.719455  1.561286  -0.364423
H    -3.566151  -1.054315  3.062511
H    -2.845610  -2.105106  1.838179
H    -4.991223  -1.964471  1.009067
H    -4.207643  -0.700606  0.092638
H    -5.157228  0.821045  2.230163
H    -6.272887  -0.517132  2.330894
H    -7.278765  1.250475  1.039859
H    -6.997398  -0.112282  -0.056864
H    -6.262909  2.402349  -0.594737
H    -5.497696  1.101581  -1.255156
H    -4.806343  1.852229  0.064541
N    -2.630673  2.057528  2.963287
C    -2.229807  1.613900  4.296737
H    -2.978334  3.012706  2.885934
H    -2.677527  2.292528  5.029515
H    -1.140237  1.646558  4.432818
H    -2.608481  0.609295  4.519377
Sr    3.230280  -1.347794  3.541140
