35
Energy: -105404.900734 eV PBE+vdW (tier 2 basis)
C    -0.399603  -1.671774  1.460506
C    0.301806  -0.402629  1.810960
O    1.567983  -0.459809  2.123991
H    0.071699  -2.119318  0.573660
H    -1.465523  -1.539900  1.259364
H    -0.284784  -2.389533  2.284496
N    -0.295669  0.764397  1.816002
C    -1.601361  1.163947  1.266774
C    -1.311660  2.633978  0.817487
O    -0.328990  3.203409  1.314041
H    0.244882  1.647746  1.980813
H    -1.826619  0.539418  0.391983
C    -2.788616  1.075571  2.258188
C    -2.828360  2.126123  3.380325
C    -4.150046  2.054397  4.172311
C    -4.239258  3.152873  5.228830
N    -5.573919  3.117898  5.964340
H    -2.813085  0.060321  2.683378
H    -3.701308  1.163063  1.648949
H    -2.722845  3.132947  2.948432
H    -1.975390  1.992498  4.063049
H    -4.247586  1.066849  4.651538
H    -4.994397  2.152998  3.470333
H    -4.164912  4.156039  4.790687
H    -3.466447  3.055685  6.001334
H    -5.630299  3.861107  6.676720
H    -5.721836  2.219580  6.447057
H    -6.367192  3.252330  5.320189
N    -2.172798  3.180954  -0.046417
C    -2.045332  4.546773  -0.562975
H    -2.899972  2.595135  -0.446231
H    -3.014451  5.054552  -0.507794
H    -1.708622  4.530773  -1.606918
H    -1.311742  5.083424  0.043952
Sr    3.716753  -0.736828  2.326524
