28
Energy: -103703.258525 eV PBE+vdW (tier 2 basis)
N    2.632266  0.020041  1.817488
C    1.373295  -0.796695  1.926814
C    0.273330  -0.032063  1.197714
O    0.515318  0.932911  0.445462
H    2.741728  0.531837  2.702952
H    3.427078  -0.628893  1.819912
H    1.528807  -1.704252  1.316967
C    1.029921  -1.229773  3.388926
C    0.648364  -2.706931  3.636094
C    -0.822546  -3.098482  3.393169
N    -1.100179  -4.491189  3.759141
C    -1.413344  -4.973224  4.980449
N    -1.366785  -6.290688  5.195436
N    -1.748342  -4.147182  5.981289
H    0.269529  -0.555184  3.809281
H    1.942639  -1.048733  3.974536
H    0.880838  -2.915250  4.690345
H    1.305619  -3.368999  3.051185
H    -1.103719  -3.001724  2.337473
H    -1.496936  -2.423131  3.939020
H    -1.044822  -5.177767  3.013943
H    -1.802122  -6.709261  6.011265
H    -1.906832  -4.513237  6.914619
H    -2.120183  -3.223722  5.797933
H    -0.929822  -6.927890  4.538749
O    -0.934888  -0.489329  1.395061
H    -1.600845  0.010211  0.870075
Sr    2.598633  1.847596  -0.119295
