28
Energy: -103703.470229 eV PBE+vdW (tier 2 basis)
N    -0.113870  1.840348  1.559126
C    0.007154  0.428811  2.065486
C    1.339406  -0.120049  1.555701
O    2.231567  0.627065  1.103847
H    -0.694729  1.815353  0.710629
H    -0.688380  2.364438  2.227917
H    0.135864  0.490033  3.161306
C    -1.244173  -0.441022  1.760576
C    -1.465948  -1.664777  2.672918
C    -2.761123  -2.412102  2.291693
N    -2.932328  -3.668304  3.028925
C    -3.990667  -4.034160  3.784109
N    -4.240956  -5.333385  3.970529
N    -4.785414  -3.119613  4.353030
H    -1.216530  -0.752547  0.704113
H    -2.110414  0.231733  1.862053
H    -1.516332  -1.347335  3.725712
H    -0.620029  -2.360249  2.593224
H    -2.753716  -2.651733  1.216917
H    -3.647200  -1.786246  2.457745
H    -2.299993  -4.423757  2.779808
H    -3.861615  -6.046199  3.356843
H    -5.669361  -3.390082  4.771267
H    -4.476177  -2.170556  4.516192
H    -4.858030  -5.651380  4.711096
O    1.489178  -1.411110  1.663044
H    2.382452  -1.697607  1.364652
Sr    2.213362  2.953432  0.883542
