28
Energy: -103703.938206 eV PBE+vdW (tier 2 basis)
N    0.951018  -0.665051  0.429456
C    0.261096  0.526603  1.084147
C    1.383250  1.413430  1.673216
O    2.589073  1.160829  1.324730
H    0.516678  -0.941942  -0.461028
H    0.965502  -1.490591  1.044421
H    -0.165842  1.114422  0.254871
C    -0.862236  0.130871  2.053079
C    -2.078152  -0.509606  1.349104
C    -3.401832  -0.509105  2.139594
N    -3.508164  -1.561047  3.155556
C    -4.661036  -2.178068  3.508296
N    -4.607287  -3.253172  4.302029
N    -5.840409  -1.741485  3.058364
H    -1.164796  1.067091  2.544994
H    -0.451072  -0.512834  2.848548
H    -1.862570  -1.539042  1.021934
H    -2.290913  0.067243  0.435274
H    -4.206989  -0.681723  1.413880
H    -3.568926  0.483746  2.589394
H    -2.729239  -1.699586  3.791094
H    -5.441125  -3.616913  4.752143
H    -3.753261  -3.784247  4.426042
H    -6.677431  -2.306703  3.163055
H    -5.976051  -0.789789  2.738815
O    1.079519  2.391597  2.412749
H    1.940519  -0.384399  0.262279
Sr    3.349679  3.191470  2.464967
