28
Energy: -103703.152974 eV PBE+vdW (tier 2 basis)
N    1.508205  -1.235242  0.155312
C    0.241092  -0.431901  0.249677
C    0.552733  0.844316  1.040924
O    1.666489  1.018378  1.566817
H    1.384344  -2.087660  0.714832
H    1.594107  -1.585365  -0.804616
H    -0.022723  -0.102489  -0.769580
C    -0.934374  -1.281341  0.820185
C    -2.350625  -0.670446  0.774939
C    -3.419656  -1.721882  1.158823
N    -4.758392  -1.148159  1.318346
C    -5.889792  -1.535191  0.683147
N    -7.069680  -1.323156  1.270137
N    -5.842268  -2.115194  -0.521532
H    -0.690003  -1.571144  1.855169
H    -0.934543  -2.207941  0.224884
H    -2.574875  -0.275794  -0.229121
H    -2.438309  0.162220  1.491340
H    -3.140303  -2.203780  2.108520
H    -3.466382  -2.522592  0.410210
H    -4.907969  -0.586281  2.152130
H    -7.151706  -1.150989  2.266616
H    -5.046410  -2.008939  -1.136792
H    -6.667709  -2.552607  -0.918587
H    -7.937235  -1.368445  0.744258
O    -0.330263  1.800103  1.160560
H    -1.172071  1.627408  0.693327
Sr    3.700316  0.021114  1.137075
