28
Energy: -103703.128107 eV PBE+vdW (tier 2 basis)
N    1.820786  -1.115069  0.501853
C    0.385626  -0.711970  0.700881
C    0.353114  0.805131  0.927364
O    1.392514  1.432049  1.202385
H    2.048299  -1.840313  1.191006
H    1.896288  -1.600729  -0.398066
H    -0.163833  -0.909141  -0.234318
C    -0.284157  -1.528899  1.849198
C    -1.789104  -1.284997  2.074743
C    -2.448947  -2.184758  3.138431
N    -2.698078  -3.552339  2.663172
C    -3.053072  -4.581669  3.475030
N    -3.164186  -4.405828  4.794363
N    -3.251325  -5.790691  2.942367
H    0.262444  -1.332921  2.785999
H    -0.119200  -2.587314  1.594773
H    -2.345421  -1.386477  1.126791
H    -1.958375  -0.258722  2.432269
H    -3.394878  -1.705108  3.437499
H    -1.804663  -2.240260  4.028062
H    -3.018440  -3.642025  1.702065
H    -3.293759  -5.199947  5.414194
H    -3.691719  -6.536368  3.472070
H    -2.983030  -6.007754  1.989432
H    -3.316720  -3.491587  5.203141
O    -0.756192  1.487521  0.827248
H    -1.534718  0.963687  0.550591
Sr    3.592743  0.940492  0.746456
