28
Energy: -103702.741121 eV PBE+vdW (tier 2 basis)
N    0.548708  -0.432050  -0.220972
C    0.136662  -0.671582  1.205457
C    1.413639  -0.786962  2.044291
O    2.506161  -1.050438  1.509640
H    0.000050  -1.054386  -0.823855
H    0.236303  0.506881  -0.491333
H    -0.424701  0.205043  1.567822
C    -0.781482  -1.926626  1.327000
C    -1.352719  -2.227845  2.726375
C    -2.292658  -3.456249  2.784198
N    -3.653612  -3.249537  2.276816
C    -4.783521  -3.261531  3.025551
N    -5.950108  -3.551754  2.443402
N    -4.747996  -2.972510  4.329599
H    -0.227477  -2.806276  0.960214
H    -1.610605  -1.746281  0.624275
H    -1.886180  -1.346522  3.117740
H    -0.534174  -2.457847  3.425287
H    -2.365314  -3.797688  3.824247
H    -1.850732  -4.297268  2.229991
H    -3.801781  -3.386321  1.282152
H    -6.001449  -4.043043  1.557596
H    -5.550144  -3.151639  4.925446
H    -3.956524  -2.514532  4.761801
H    -6.832648  -3.372653  2.912527
O    1.395342  -0.615906  3.339189
H    0.525588  -0.348484  3.698268
Sr    3.224372  -0.712993  -0.651724
