28
Energy: -103703.435382 eV PBE+vdW (tier 2 basis)
N    0.894154  0.987351  1.751011
C    1.193238  -0.350101  2.370083
C    2.182763  -1.060722  1.444080
O    2.843288  -0.438418  0.586680
H    0.028554  0.890759  1.204312
H    0.633217  1.630549  2.506049
H    1.774006  -0.151952  3.289440
C    -0.071742  -1.169134  2.755590
C    0.139263  -2.199470  3.884584
C    -1.059508  -3.136383  4.137512
N    -2.213151  -2.543139  4.827768
C    -2.614943  -2.841937  6.084539
N    -3.889555  -2.636849  6.431985
N    -1.752420  -3.321617  6.986022
H    -0.466720  -1.665430  1.854883
H    -0.829825  -0.436052  3.072518
H    0.406597  -1.676193  4.815863
H    0.984979  -2.854755  3.638311
H    -0.719413  -3.997248  4.726932
H    -1.422438  -3.555913  3.187809
H    -2.914319  -2.090286  4.250487
H    -4.180467  -2.655758  7.404235
H    -2.078730  -3.719129  7.860833
H    -0.750748  -3.271278  6.854584
H    -4.627306  -2.560642  5.740458
O    2.310605  -2.342998  1.638906
H    2.993024  -2.736545  1.048219
Sr    2.799595  1.839287  0.078307
