28
Energy: -103703.905890 eV PBE+vdW (tier 2 basis)
N    1.032375  -1.735080  0.453211
C    0.897514  -0.416262  1.203495
C    2.329105  0.091349  1.486718
O    3.287096  -0.425013  0.811681
H    1.009586  -2.545937  1.087059
H    1.959784  -1.732799  -0.016450
H    0.508557  0.297402  0.458358
C    -0.110829  -0.454683  2.359957
C    0.116233  -1.463003  3.501119
C    -1.003557  -1.319963  4.552198
N    -0.888079  -2.318742  5.616555
C    -1.913091  -2.771713  6.374985
N    -1.711280  -3.812571  7.188512
N    -3.123757  -2.210201  6.295619
H    -1.107837  -0.609608  1.918943
H    -0.124133  0.568711  2.762913
H    1.095291  -1.290557  3.975549
H    0.105999  -2.503514  3.135328
H    -1.977847  -1.463206  4.063119
H    -0.983244  -0.300125  4.971470
H    0.043396  -2.539293  5.955982
H    -2.377362  -4.049876  7.916675
H    -0.907906  -4.422538  7.088810
H    -3.927276  -2.649337  6.734404
H    -3.252259  -1.258130  5.974672
O    2.502313  1.061104  2.279004
H    0.291625  -1.865042  -0.250047
Sr    4.785585  1.350626  1.559159
