28
Energy: -103702.786770 eV PBE+vdW (tier 2 basis)
N    2.407445  -0.443396  0.911917
C    1.175620  -1.158408  0.441250
C    0.468931  -0.241574  -0.567777
O    1.032236  0.779478  -1.001801
H    2.189094  0.010533  1.807848
H    3.110620  -1.148344  1.158045
H    1.518701  -2.018716  -0.161751
C    0.302821  -1.708448  1.609096
C    -0.758125  -2.769014  1.230207
C    -1.201748  -3.692289  2.391427
N    -2.129938  -3.101585  3.361157
C    -3.369403  -3.569951  3.654307
N    -4.079965  -4.254205  2.753429
N    -3.890342  -3.323379  4.859024
H    -0.156620  -0.865437  2.148856
H    1.015431  -2.180741  2.303006
H    -0.345306  -3.440858  0.460323
H    -1.670226  -2.304321  0.815546
H    -0.315188  -4.053045  2.935085
H    -1.673978  -4.587450  1.969576
H    -1.728225  -2.498950  4.072975
H    -4.920149  -4.755353  3.025097
H    -4.879864  -3.458712  5.043368
H    -3.311684  -3.079211  5.655513
H    -3.862045  -4.239282  1.765472
O    -0.712040  -0.533744  -1.037863
H    -1.088737  -1.355389  -0.659361
Sr    3.197688  1.538789  -0.760972
