28
Energy: -103703.165434 eV PBE+vdW (tier 2 basis)
N    0.980374  0.482881  -0.005745
C    0.144396  0.273300  1.226943
C    1.076514  -0.177885  2.354716
O    2.211610  -0.623636  2.108222
H    0.533401  -0.013294  -0.784722
H    0.909395  1.470021  -0.275830
H    -0.296774  1.238713  1.523973
C    -1.013807  -0.734082  0.957912
C    -2.051813  -0.917778  2.083694
C    -3.278695  -1.712563  1.587751
N    -4.229299  -1.949924  2.675224
C    -5.570900  -2.067444  2.541357
N    -6.334560  -2.074968  3.637234
N    -6.135685  -2.145308  1.331412
H    -0.582215  -1.709878  0.682810
H    -1.528919  -0.346768  0.064493
H    -2.399315  0.061227  2.450817
H    -1.603416  -1.459529  2.931699
H    -2.952590  -2.668135  1.144131
H    -3.794757  -1.135321  0.807963
H    -3.850329  -2.241003  3.571996
H    -7.301853  -2.381338  3.603976
H    -7.142454  -2.063150  1.226643
H    -5.628181  -2.494659  0.527444
H    -5.986676  -1.759485  4.535897
O    0.705809  -0.112252  3.606655
H    -0.163916  0.313183  3.745873
Sr    3.566348  -0.287633  0.271732
