28
Energy: -103702.793498 eV PBE+vdW (tier 2 basis)
N    1.009632  -2.821997  2.051970
C    0.373246  -1.970192  0.993501
C    1.454724  -1.647813  -0.047873
O    2.549049  -2.239509  -0.031413
H    1.277861  -2.210951  2.833699
H    0.285065  -3.428320  2.451142
H    -0.343232  -2.616710  0.454911
C    -0.415701  -0.757677  1.572502
C    -1.424210  -0.079382  0.615085
C    -2.555235  0.713904  1.314777
N    -2.182839  2.031400  1.839941
C    -2.734739  3.214273  1.469521
N    -2.720704  4.236571  2.328632
N    -3.272013  3.375849  0.257101
H    0.293976  -0.023688  1.985498
H    -0.984744  -1.163520  2.423261
H    -1.930043  -0.850153  0.011831
H    -0.924052  0.614954  -0.083292
H    -2.970145  0.116035  2.140607
H    -3.380858  0.850904  0.606320
H    -1.701725  2.051311  2.733799
H    -2.600097  4.098651  3.326197
H    -3.841970  4.188608  0.044311
H    -3.082108  2.743914  -0.509725
H    -2.918042  5.184852  2.023346
O    1.239453  -0.789444  -1.006090
H    0.354399  -0.371481  -0.961758
Sr    3.291052  -4.029388  1.222200
