28
Energy: -103703.501806 eV PBE+vdW (tier 2 basis)
N    1.479303  -1.007917  0.310440
C    0.606580  -0.451195  1.427801
C    1.563973  0.023357  2.545932
O    1.096121  0.334784  3.678052
H    1.099303  -0.809063  -0.625213
H    2.417346  -0.568128  0.405098
H    0.180717  0.482084  1.024358
C    -0.561971  -1.363880  1.829352
C    -0.220117  -2.785676  2.304874
C    -1.415937  -3.521993  2.953227
N    -2.517044  -3.870912  2.050488
C    -2.762499  -5.082625  1.498711
N    -3.841606  -5.237315  0.726491
N    -1.924329  -6.109920  1.677714
H    -1.266649  -1.398267  0.984812
H    -1.079934  -0.817641  2.632044
H    0.566995  -2.750903  3.074738
H    0.165825  -3.408553  1.480686
H    -1.844910  -2.901353  3.751796
H    -1.047379  -4.422351  3.461373
H    -3.298545  -3.223481  2.030340
H    -4.455833  -4.464496  0.496219
H    -2.114234  -7.009547  1.247612
H    -1.237241  -6.112566  2.420540
H    -4.132596  -6.153092  0.399732
O    2.798683  0.179786  2.244702
H    1.607728  -2.026145  0.390459
Sr    3.183249  1.329010  4.367622
