28
Energy: -103703.142873 eV PBE+vdW (tier 2 basis)
N    0.119993  -0.188360  -0.814139
C    -0.284447  0.330924  0.531141
C    0.997267  0.633690  1.319641
O    2.097487  0.687005  0.739525
H    0.173098  -1.213006  -0.767619
H    -0.650088  -0.007979  -1.467536
H    -0.719007  1.332133  0.354357
C    -1.377043  -0.475030  1.280245
C    -1.032043  -1.892234  1.777120
C    -2.234818  -2.499499  2.528499
N    -1.939055  -3.840876  3.034097
C    -2.865894  -4.780258  3.338608
N    -4.170415  -4.490303  3.308375
N    -2.462294  -6.017472  3.640319
H    -2.248970  -0.513465  0.609164
H    -1.725490  0.142923  2.126253
H    -0.158666  -1.864060  2.449629
H    -0.772045  -2.557089  0.938543
H    -3.090961  -2.576627  1.842718
H    -2.525678  -1.829309  3.355799
H    -1.007522  -4.007331  3.403741
H    -4.865529  -5.227468  3.377708
H    -3.091367  -6.686972  4.072251
H    -1.524400  -6.341398  3.432854
H    -4.511656  -3.542516  3.414892
O    0.964151  0.905571  2.595060
H    0.067175  0.886577  2.985850
Sr    2.579217  0.709429  -1.522094
