28
Energy: -103703.991494 eV PBE+vdW (tier 2 basis)
N    1.863474  -0.625329  0.609095
C    0.668296  -0.105849  1.401115
C    1.192350  1.075406  2.252298
O    0.433288  1.605449  3.111923
H    2.585122  0.127016  0.631429
H    2.277941  -1.462812  1.041254
H    -0.013873  0.342016  0.660617
C    -0.063132  -1.197641  2.191944
C    -0.827966  -2.220367  1.327957
C    -1.724801  -3.134253  2.188523
N    -2.576483  -4.006345  1.372451
C    -2.792474  -5.330741  1.541922
N    -3.932171  -5.865870  1.096016
N    -1.882666  -6.113502  2.133369
H    -0.768901  -0.662300  2.844316
H    0.647917  -1.700374  2.868950
H    -0.141799  -2.844687  0.733882
H    -1.463676  -1.679389  0.608581
H    -2.372376  -2.517329  2.831822
H    -1.123594  -3.754870  2.863986
H    -3.262203  -3.534788  0.788566
H    -4.748839  -5.299668  0.893077
H    -2.112569  -7.065761  2.397887
H    -0.910144  -5.845278  2.205244
H    -4.034067  -6.869049  0.977871
O    2.370658  1.513571  2.009819
H    1.634028  -0.852732  -0.367162
Sr    2.021659  3.339481  3.609244
