28
Energy: -103703.291458 eV PBE+vdW (tier 2 basis)
N    -0.432670  2.317537  2.213876
C    1.045777  2.064240  2.159338
C    1.488350  2.220971  0.706752
O    0.814514  2.879922  -0.113400
H    -0.919393  1.422911  2.077564
H    -0.668068  2.581567  3.177138
H    1.521578  2.935189  2.649034
C    1.573236  0.829348  2.925331
C    1.171682  -0.573762  2.435715
C    1.739247  -1.640872  3.396287
N    1.369434  -3.009675  3.019438
C    2.177176  -4.096123  3.027199
N    1.637517  -5.306293  3.198673
N    3.497115  -3.981836  2.847385
H    1.262030  0.962354  3.973397
H    2.669875  0.915916  2.937516
H    1.544676  -0.761079  1.418183
H    0.074419  -0.683570  2.402024
H    1.382435  -1.447892  4.420781
H    2.832745  -1.568897  3.436683
H    0.375604  -3.222310  3.035166
H    2.155204  -6.151289  2.977802
H    4.114252  -4.769882  3.014469
H    3.913686  -3.159853  2.430239
H    0.718196  -5.431366  3.608022
O    2.640894  1.685591  0.417452
H    2.925354  1.902118  -0.499862
Sr    -1.188869  4.021038  0.298799
