28
Energy: -103704.155248 eV PBE+vdW (tier 2 basis)
N    1.610856  -1.430418  -0.519708
C    0.889490  -0.882786  0.707499
C    1.781571  0.253500  1.262401
O    1.485645  0.793939  2.365014
H    2.321291  -0.715424  -0.788463
H    2.113457  -2.305209  -0.313862
H    -0.019206  -0.386776  0.329987
C    0.509673  -1.966905  1.724174
C    -0.606899  -2.919723  1.253670
C    -1.033817  -3.897144  2.364787
N    -2.136990  -4.748689  1.913581
C    -2.435785  -5.975372  2.396317
N    -3.352851  -6.717078  1.768312
N    -1.803070  -6.461554  3.469996
H    0.185419  -1.427495  2.626104
H    1.413084  -2.528485  2.016000
H    -0.291841  -3.506052  0.375729
H    -1.479892  -2.321287  0.945506
H    -1.326285  -3.329741  3.264302
H    -0.189496  -4.547913  2.634051
H    -2.851171  -4.316178  1.334560
H    -3.761242  -7.535665  2.207764
H    -1.911305  -7.435330  3.735789
H    -1.376483  -5.852622  4.157580
H    -3.666228  -6.499337  0.829105
O    2.765032  0.647964  0.543434
H    0.983023  -1.605248  -1.314966
Sr    3.213024  2.453027  2.140340
