24
Energy: -568938.3701 eV PBE+vdW (tier 2 basis)
C    0.115781  0.264601  -0.049070
C    -0.058170  0.011052  1.418245
O    0.999913  0.049643  2.126159
H    0.498797  1.283244  -0.199512
H    -0.816694  0.124063  -0.608301
H    0.877584  -0.426985  -0.436041
N    -1.290463  -0.256631  1.884835
C    -1.642757  -0.806958  3.197050
C    -2.691558  -1.970643  2.978435
O    -2.317613  -3.086984  3.309486
H    -2.024700  -0.229799  1.179506
H    -0.772261  -1.359328  3.572646
C    -2.069912  0.197568  4.277562
O    -0.946321  0.363089  5.193084
H    -2.901856  -0.191654  4.884801
H    -2.373207  1.159262  3.842420
H    -1.231977  0.855352  5.989811
N    -3.892123  -1.715931  2.410062
C    -4.628844  -0.454144  2.366394
H    -4.458265  -2.561712  2.305897
H    -5.173637  -0.270405  3.304780
H    -5.363962  -0.515530  1.555438
H    -3.971124  0.399351  2.162589
Hg    1.228617  0.798884  4.217462
