24
Energy: -568938.514111 eV PBE+vdW (tier 2 basis)
C    -1.194924  1.561369  0.388645
C    -0.220257  0.704924  1.136270
O    0.976858  0.917247  1.189014
H    -0.737559  2.541759  0.219053
H    -2.138140  1.683698  0.938257
H    -1.402783  1.119850  -0.598233
N    -0.679320  -0.439787  1.847960
C    -1.824689  -1.235694  1.485928
C    -2.800495  -1.397930  2.699152
O    -3.803770  -2.173880  2.688398
H    0.105041  -0.932439  2.288154
H    -2.402669  -0.706672  0.711632
C    -1.375298  -2.595872  0.891693
O    -2.411598  -3.043247  -0.021354
H    -1.185713  -3.345908  1.673859
H    -0.448958  -2.445190  0.319078
H    -2.028152  -3.654657  -0.682801
N    -2.558615  -0.657041  3.758863
C    -3.358868  -0.629856  4.989753
H    -1.767603  -0.014193  3.665497
H    -4.246558  0.000573  4.850825
H    -2.738924  -0.212176  5.788054
H    -3.670724  -1.645298  5.253305
Hg    -4.450511  -3.752982  1.142383
