24
Energy: -568938.733974 eV PBE+vdW (tier 2 basis)
C    -0.546506  -2.060730  0.314195
C    -0.436387  -1.624202  1.747945
O    0.492452  -2.236778  2.400016
H    0.366484  -1.763306  -0.220342
H    -1.429621  -1.626801  -0.169771
H    -0.605770  -3.156747  0.274285
N    -1.265100  -0.693698  2.195100
C    -1.603847  -0.205855  3.534229
C    -3.064771  0.380562  3.329107
O    -3.421316  0.629901  2.182963
H    -1.952877  -0.318717  1.517125
H    -1.654055  -1.037592  4.254027
C    -0.717323  0.922996  4.081397
O    0.231100  0.377706  5.056129
H    -1.324094  1.655111  4.638353
H    -0.200146  1.448668  3.267641
H    0.754707  1.105143  5.453115
N    -3.823380  0.620868  4.418045
C    -3.658735  0.135995  5.783880
H    -4.744861  0.994821  4.177645
H    -4.133857  -0.848772  5.913014
H    -4.153697  0.841542  6.461616
H    -2.603630  0.067519  6.068308
Hg    1.365230  -1.533633  4.248980
