24
Energy: -568939.471408 eV PBE+vdW (tier 2 basis)
C    -0.370192  -0.256246  -0.178984
C    -0.328311  0.063209  1.285962
O    0.717652  0.657008  1.692254
H    -0.045347  0.622249  -0.750058
H    -1.362917  -0.571943  -0.519671
H    0.354983  -1.059142  -0.378525
N    -1.398765  -0.291962  2.025326
C    -1.693745  -0.203063  3.472174
C    -1.647438  1.237251  4.032814
O    -0.632622  1.707258  4.657903
H    -2.118739  -0.766879  1.486272
H    -2.749057  -0.503820  3.542161
C    -0.977950  -1.246891  4.351581
O    0.452803  -1.227934  4.137531
H    -1.348502  -2.245846  4.079351
H    -1.224024  -1.051269  5.406166
H    0.876899  -1.916035  4.684585
N    -2.725011  2.000664  3.949062
C    -4.071824  1.665790  3.470276
H    -2.605506  2.929116  4.363415
H    -4.029894  1.128470  2.517036
H    -4.608862  2.604983  3.306252
H    -4.621986  1.080474  4.219711
Hg    1.295357  1.012556  3.803408
