24
Energy: -568938.687844 eV PBE+vdW (tier 2 basis)
C    -0.380544  1.537349  0.120509
C    -0.395155  0.727855  1.381174
O    0.452597  -0.209577  1.473573
H    0.547177  2.127223  0.088434
H    -1.248604  2.203153  0.043301
H    -0.357991  0.859037  -0.742922
N    -1.320448  1.028066  2.323464
C    -1.529255  0.358821  3.593833
C    -3.041564  0.039097  3.926339
O    -3.292646  -0.142143  5.113945
H    -1.807776  1.912254  2.177110
H    -1.104233  -0.662683  3.517035
C    -0.899184  1.068714  4.789064
O    0.522284  1.152510  4.549458
H    -1.142555  0.509225  5.705275
H    -1.285028  2.095967  4.911550
H    0.962056  1.566849  5.319370
N    -3.915203  -0.070354  2.918661
C    -5.333495  -0.359795  3.136437
H    -3.603775  0.136719  1.973150
H    -5.714936  -0.900230  2.263401
H    -5.909176  0.569422  3.259832
H    -5.439783  -0.962465  4.045311
Hg    1.474240  -0.847014  3.397699
