24
Energy: -568939.116121 eV PBE+vdW (tier 2 basis)
C    -0.154538  1.248893  0.144229
C    -0.254257  0.265089  1.268825
O    0.577519  -0.705011  1.218386
H    -0.940877  2.011213  0.170198
H    -0.213182  0.700886  -0.807199
H    0.835130  1.726090  0.174938
N    -1.185516  0.480476  2.216728
C    -1.809648  -0.366079  3.265806
C    -1.072169  -0.372442  4.626897
O    0.060526  -0.959433  4.818447
H    -1.694378  1.349165  2.067976
H    -2.777345  0.114947  3.448261
C    -2.183412  -1.798312  2.827827
O    -2.967054  -2.289200  3.871720
H    -1.282136  -2.452403  2.659082
H    -2.698123  -1.754572  1.852600
H    -3.441518  -3.097957  3.607970
N    -1.628387  0.206328  5.669302
C    -2.939676  0.869804  5.776175
H    -1.089361  0.122244  6.534783
H    -3.026066  1.255548  6.795818
H    -3.751555  0.153378  5.603569
H    -3.010998  1.719355  5.087006
Hg    0.978018  -1.813011  3.047654
