24
Energy: -568939.580483 eV PBE+vdW (tier 2 basis)
C    0.187943  1.195550  0.301743
C    -0.910815  0.653309  1.162671
O    -1.604064  1.517313  1.793237
H    0.783820  1.903027  0.895192
H    -0.259164  1.770572  -0.521968
H    0.844889  0.416510  -0.100178
N    -1.070955  -0.682539  1.209656
C    -1.823175  -1.603014  2.106564
C    -3.273180  -1.863672  1.641919
O    -4.117460  -0.926066  1.428167
H    -0.436990  -1.177243  0.586050
H    -1.272773  -2.546027  1.984372
C    -1.710888  -1.318474  3.622119
O    -2.798873  -0.499672  4.101770
H    -0.734243  -0.858710  3.830618
H    -1.767553  -2.283007  4.149487
H    -2.643377  -0.256335  5.033942
N    -3.640462  -3.119261  1.457968
C    -4.991845  -3.545741  1.073989
H    -2.930517  -3.846380  1.521959
H    -5.722132  -2.819474  1.441181
H    -5.180612  -4.530459  1.512529
H    -5.065972  -3.613918  -0.019549
Hg    -3.649605  1.005713  2.394564
