24
Energy: -568938.859886 eV PBE+vdW (tier 2 basis)
C    -0.297694  0.074548  -0.342038
C    -0.014330  0.202456  1.128914
O    1.198556  0.550481  1.388855
H    0.476853  -0.551037  -0.805337
H    -0.234013  1.069420  -0.804547
H    -1.284791  -0.366798  -0.523672
N    -0.992469  -0.045145  1.986535
C    -1.039712  -0.258667  3.434665
C    -2.366374  -1.121291  3.610041
O    -3.156590  -1.165728  2.676489
H    -1.901924  -0.331413  1.579584
H    -0.183451  -0.865531  3.769845
C    -1.172164  0.998292  4.301669
O    0.134796  1.372973  4.843251
H    -1.802583  0.787359  5.182399
H    -1.627556  1.823925  3.738158
H    0.034712  2.131411  5.455685
N    -2.543752  -1.722903  4.802843
C    -3.688301  -2.587797  5.078295
H    -1.775223  -1.737968  5.470597
H    -3.466722  -3.630112  4.799482
H    -4.547640  -2.243920  4.493653
H    -3.903778  -2.551913  6.152149
Hg    1.882278  1.435958  3.244689
