24
Energy: -568939.21358 eV PBE+vdW (tier 2 basis)
C    0.293155  -0.626383  0.108560
C    0.198711  -0.123643  1.511904
O    1.302280  -0.103101  2.163027
H    -0.430373  -0.121046  -0.546603
H    0.049784  -1.701517  0.119572
H    1.306424  -0.495893  -0.281671
N    -1.005951  0.276742  1.971608
C    -1.635253  0.185678  3.324659
C    -1.595677  1.488065  4.155703
O    -0.531950  1.950173  4.724200
H    -1.710027  0.265172  1.236116
H    -2.690971  -0.003823  3.089012
C    -1.172409  -1.047616  4.138916
O    -1.130803  -2.120555  3.245380
H    -1.885409  -1.183306  4.970235
H    -0.176716  -0.886144  4.626823
H    -1.107175  -2.966528  3.726268
N    -2.728858  2.130924  4.341829
C    -2.881939  3.356864  5.137320
H    -3.577223  1.725267  3.949660
H    -1.963053  3.947693  5.082568
H    -3.087784  3.098343  6.184583
H    -3.723627  3.925785  4.731323
Hg    1.257842  0.985847  4.010008
