21
Energy: -246964.8559219  eV PBE+vdW (tier 2 basis)
N    0.537580  0.841890  0.169128
C    0.238418  0.199078  1.408003
C    1.469678  -0.309628  2.167887
O    2.396312  -0.931602  1.770375
H    0.630546  0.199372  -0.616248
H    1.335227  1.474154  0.185475
H    -0.265585  0.953712  2.072487
C    -0.751776  -0.961787  1.172217
C    -1.295607  -1.676991  2.404271
S    -2.341424  -0.571639  3.443320
C    -3.166963  -1.750438  4.559400
H    -0.242131  -1.718242  0.554799
H    -1.575195  -0.555879  0.567963
H    -0.510764  -2.127056  3.027155
H    -1.968222  -2.483185  2.083017
H    -3.802677  -2.403415  3.950532
H    -3.806146  -1.167568  5.232300
H    -2.443611  -2.341702  5.130170
O    1.428975  0.089370  3.582307
H    2.260727  -0.277434  3.953605
Ba    -0.462914  1.400871  4.818456
