21
Energy: -246965.9366920  eV PBE+vdW (tier 2 basis)
N    0.134553  0.308530  0.030802
C    0.091273  0.158174  1.549045
C    1.547002  0.017914  2.004195
O    2.444967  -0.212194  1.118178
H    0.001855  1.280168  -0.278685
H    -0.582450  -0.271076  -0.425833
H    -0.338890  1.077430  1.968317
C    -0.774405  -1.065803  1.938097
C    -1.163502  -1.113935  3.423884
S    -1.986126  -2.663341  3.885512
C    -3.650660  -2.429105  3.202912
H    -0.254948  -1.994955  1.658382
H    -1.695757  -1.015938  1.334665
H    -1.796556  -0.253321  3.688210
H    -0.273475  -1.068218  4.063671
H    -3.663585  -2.413246  2.106814
H    -4.119948  -1.527333  3.614016
H    -4.224487  -3.301725  3.536518
O    1.819138  0.095747  3.240168
H    1.081705  -0.005155  -0.269548
Ba    4.253986  -0.397469  2.970971
