21
Energy: -246965.4762774  eV PBE+vdW (tier 2 basis)
N    -0.766232  -0.132616  -0.049599
C    -0.070756  0.108165  1.252579
C    1.375943  0.544423  0.918866
O    1.700346  0.788481  -0.224508
H    -0.112769  0.282947  -0.748378
H    -0.721507  -1.136875  -0.259529
H    -0.520630  0.999392  1.739423
C    -0.166507  -1.063742  2.236525
C    -1.576582  -1.613516  2.476916
S    -2.785683  -0.286083  2.891164
C    -4.196562  -1.243155  3.531537
H    0.272626  -0.736934  3.187472
H    0.457111  -1.898828  1.879475
H    -1.562300  -2.287680  3.343388
H    -1.958446  -2.193561  1.624840
H    -3.880026  -1.735564  4.457966
H    -4.550613  -1.983112  2.806226
H    -4.990006  -0.524902  3.766785
O    2.134716  0.641654  2.005775
H    3.032402  0.946499  1.753389
Ba    -3.205983  0.954030  0.092679
