21
Energy: -246964.1349267  eV PBE+vdW (tier 2 basis)
N    0.208186  -0.116793  -0.105406
C    -0.143649  0.166611  1.263427
C    1.028769  0.518434  2.209231
O    1.131723  0.100751  3.351058
H    0.992063  -0.759304  -0.206838
H    0.384013  0.716200  -0.661910
H    -0.794297  1.058603  1.253938
C    -0.936391  -1.034768  1.850057
C    -1.708306  -0.662743  3.115696
S    -2.014353  -2.119347  4.213984
C    -0.383474  -2.458104  4.949768
H    -0.221200  -1.844482  2.050686
H    -1.621770  -1.390639  1.072482
H    -2.702891  -0.253149  2.890187
H    -1.160876  0.043050  3.751962
H    -0.485946  -3.329380  5.605959
H    -0.037604  -1.580343  5.503445
H    0.315234  -2.694889  4.141073
O    1.906928  1.341719  1.624145
H    2.617445  1.547080  2.265790
Ba    -4.457243  -2.598878  5.709871
