21
Energy: -246965.4357665  eV PBE+vdW (tier 2 basis)
N    -0.022127  0.112537  0.101802
C    -0.554777  0.096827  1.494869
C    0.615756  0.273817  2.453005
O    1.767067  -0.069476  2.126001
H    0.123759  1.087571  -0.183118
H    -0.762393  -0.224801  -0.523162
H    -1.276780  0.915218  1.651538
C    -1.290794  -1.243138  1.789895
C    -0.484299  -2.522059  1.527729
S    -1.422188  -4.065501  1.750920
C    -1.561800  -4.160699  3.556257
H    -2.205944  -1.261171  1.179373
H    -1.630704  -1.230506  2.834871
H    0.425697  -2.567474  2.158821
H    -0.201557  -2.586578  0.458227
H    -2.062559  -5.118500  3.744364
H    -2.187628  -3.362694  3.970810
H    -0.576228  -4.185456  4.036460
O    0.427712  0.733870  3.664380
H    -0.489254  1.027887  3.838562
Ba    2.437229  -1.274565  0.081869
