21
Energy: -246965.6135092  eV PBE+vdW (tier 2 basis)
N    0.168460  0.642950  0.401122
C    -0.254454  -0.019576  1.593160
C    0.773074  -0.766422  2.448742
O    0.560643  -0.973639  3.670967
H    0.472759  0.019079  -0.344223
H    0.860112  1.376357  0.540690
H    -0.629130  0.755756  2.291601
C    -1.437271  -0.989907  1.285569
C    -2.795653  -0.318919  1.466007
S    -3.400277  -0.215323  3.201479
C    -4.196455  -1.842858  3.422331
H    -1.382186  -1.913335  1.881537
H    -1.333628  -1.305092  0.237178
H    -3.590276  -0.844076  0.920112
H    -2.781428  0.716182  1.098391
H    -3.512645  -2.678205  3.229272
H    -5.054486  -1.903560  2.742664
H    -4.581972  -1.889733  4.448991
O    1.855532  -1.166832  1.842189
H    2.463943  -1.641533  2.449974
Ba    -1.183133  -0.575952  5.372174
