21
Energy: -246964.1679912  eV PBE+vdW (tier 2 basis)
N    -2.228297  0.049683  1.234913
C    -0.930013  -0.285657  1.765917
C    0.068519  -1.020925  0.853593
O    1.274756  -1.059644  1.079313
H    -2.738452  -0.764007  0.891429
H    -2.174318  0.726875  0.476080
H    -0.426797  0.661540  2.025088
C    -1.137196  -1.094573  3.073091
C    0.087037  -1.443052  3.914357
S    0.937719  0.072795  4.596304
C    2.362012  0.352502  3.488880
H    -1.617229  -2.057679  2.828338
H    -1.868373  -0.533218  3.670588
H    0.849388  -2.010031  3.365467
H    -0.219369  -2.013492  4.800893
H    2.067213  -0.003715  2.477047
H    3.272996  -0.230219  3.748931
H    2.587322  1.424927  3.468818
O    -0.505630  -1.628812  -0.183764
H    0.187294  -2.072469  -0.715849
Ba    3.045902  -0.447811  6.576739
