21
Energy: -246966.4363714  eV PBE+vdW (tier 2 basis)
N    -0.187972  0.146564  0.445967
C    0.008428  -0.163066  1.888761
C    0.782885  -1.471507  2.002729
O    0.908075  -2.272903  1.061882
H    -0.901156  0.878118  0.368613
H    0.665152  0.594441  0.093564
H    0.635270  0.597875  2.380273
C    -1.329693  -0.197971  2.680436
C    -2.578177  -0.753228  1.988679
S    -2.460155  -2.516464  1.481591
C    -4.200282  -2.899983  1.114026
H    -1.567552  0.840474  2.954341
H    -1.153988  -0.721772  3.629187
H    -2.883218  -0.149171  1.122758
H    -3.404671  -0.707324  2.710840
H    -4.229271  -3.939058  0.767058
H    -4.613283  -2.232968  0.350021
H    -4.776533  -2.822609  2.042899
O    1.303735  -1.658380  3.190605
H    1.786019  -2.512285  3.240143
Ba    -0.563612  -2.275786  -0.995375
