21
Energy: -246965.9977284  eV PBE+vdW (tier 2 basis)
N    0.640197  -0.360994  0.303253
C    0.013221  -0.310646  1.663145
C    1.073033  0.050027  2.714495
O    2.293996  0.082722  2.386745
H    0.063210  0.190796  -0.338133
H    0.550557  -1.319979  -0.050436
H    -0.701484  0.527562  1.672794
C    -0.774112  -1.620109  1.956042
C    -1.335774  -1.825478  3.370319
S    -2.109332  -0.291589  4.011015
C    -2.463859  -0.753264  5.729909
H    -0.117541  -2.478693  1.738844
H    -1.596113  -1.651147  1.226834
H    -0.549110  -2.130491  4.073821
H    -2.091582  -2.619735  3.343809
H    -2.874350  0.144892  6.204674
H    -1.553820  -1.068100  6.251273
H    -3.219669  -1.545615  5.740122
O    0.714080  0.353569  3.901989
H    -0.377708  0.277295  4.043440
Ba    3.411924  0.307041  0.305094
