21
Energy: -246965.9510258  eV PBE+vdW (tier 2 basis)
N    0.125376  -0.644450  0.131721
C    -0.211134  0.108416  1.413600
C    1.109120  0.649523  1.974422
O    1.091193  1.279430  3.075353
H    0.082072  -1.662255  0.287308
H    -0.511690  -0.413811  -0.640576
H    -0.810805  0.982295  1.119492
C    -1.027257  -0.768965  2.376570
C    -0.283513  -1.995706  2.919471
S    -1.358689  -3.183016  3.774676
C    -1.801157  -2.271213  5.278126
H    -1.952237  -1.080899  1.867334
H    -1.341435  -0.118165  3.203003
H    0.545835  -1.691589  3.578967
H    0.162483  -2.609118  2.116784
H    -2.389598  -2.978027  5.875215
H    -2.426358  -1.394686  5.073392
H    -0.908856  -1.993346  5.852375
O    2.182559  0.485518  1.293064
H    1.102977  -0.401667  -0.124998
Ba    3.524251  1.849703  3.033870
