21
Energy: -246965.6055475  eV PBE+vdW (tier 2 basis)
N    0.532182  1.382624  0.864139
C    0.647010  0.563199  2.065492
C    2.046542  -0.049399  1.938205
O    2.994793  0.475486  2.608621
H    -0.021576  2.224354  1.007772
H    0.193179  0.888608  0.041928
H    0.741290  1.254289  2.912731
C    -0.528757  -0.384074  2.430959
C    -1.149764  -1.246761  1.330768
S    -0.185793  -2.775788  1.019698
C    -0.702170  -3.304341  -0.633209
H    -1.343234  0.268899  2.779264
H    -0.260572  -0.998320  3.305217
H    -1.258846  -0.714435  0.376115
H    -2.140130  -1.607456  1.635190
H    -0.075018  -4.161753  -0.902892
H    -0.600813  -2.492276  -1.359190
H    -1.744552  -3.632525  -0.548993
O    2.317086  -0.986031  1.083287
H    1.015669  -2.106739  0.756974
Ba    4.828287  -0.287538  1.225793
