21
Energy: -246966.2376830  eV PBE+vdW (tier 2 basis)
N    1.044493  -0.207069  -0.077012
C    0.765897  0.212797  1.321281
C    2.021236  -0.047074  2.159772
O    2.910361  -0.817816  1.774975
H    0.156709  -0.251191  -0.586522
H    1.563934  0.544468  -0.543530
H    0.567930  1.297419  1.372177
C    -0.492017  -0.492818  1.910026
C    -0.786659  -1.938018  1.495065
S    0.483407  -3.165406  2.002154
C    -0.408944  -4.727628  1.732186
H    -1.366355  0.098464  1.600621
H    -0.460034  -0.423796  3.006578
H    -0.975261  -2.032388  0.416760
H    -1.711963  -2.242156  2.003159
H    -0.751696  -4.830422  0.697237
H    -1.257918  -4.768160  2.423929
H    0.287760  -5.535519  1.983140
O    2.167101  0.544570  3.322128
H    1.456070  1.180798  3.537199
Ba    2.765949  -2.520052  -0.043319
