21
Energy: -246966.6563308  eV PBE+vdW (tier 2 basis)
N    0.467064  -2.346176  -0.019987
C    0.259405  -0.959508  0.564475
C    1.533401  -0.616493  1.343402
O    1.858691  0.597153  1.454908
H    -0.418535  -2.839986  -0.199028
H    1.030748  -2.876921  0.674363
H    0.112761  -0.255379  -0.262231
C    -0.964997  -0.993892  1.508562
C    -1.108072  0.212728  2.448297
S    -0.255834  -0.039482  4.062505
C    -0.877575  1.392697  4.994263
H    -0.937644  -1.918235  2.108320
H    -1.868867  -1.043964  0.883728
H    -2.167604  0.331761  2.706559
H    -0.759849  1.144777  1.985042
H    -0.441830  1.334065  5.998415
H    -1.966796  1.312163  5.085062
H    -0.603153  2.339488  4.516898
O    2.117059  -1.580271  1.941730
H    0.997359  -2.319799  -0.902249
Ba    2.946703  0.159721  3.700600
