21
Energy: -246966.5480550  eV PBE+vdW (tier 2 basis)
N    -0.000285  -0.390433  0.286989
C    0.226139  -0.152370  1.741056
C    1.010383  -1.325337  2.310408
O    1.007420  -2.452933  1.788913
H    -0.774577  0.208967  -0.015793
H    0.812168  -0.032880  -0.227600
H    0.821234  0.758776  1.903919
C    -1.097090  0.034766  2.526721
C    -1.985687  -1.186302  2.771969
S    -2.748263  -1.882863  1.249949
C    -3.983941  -3.021897  1.944384
H    -1.668632  0.832406  2.028310
H    -0.829155  0.435868  3.514901
H    -2.830608  -0.871085  3.398794
H    -1.459496  -1.986088  3.311680
H    -4.720882  -2.435827  2.505025
H    -3.521292  -3.777111  2.588161
H    -4.486761  -3.501624  1.097039
O    1.646028  -1.037357  3.420472
H    2.113631  -1.822484  3.780321
Ba    -0.340334  -3.132194  -0.263619
