21
Energy: -246966.5537882  eV PBE+vdW (tier 2 basis)
N    -0.615620  1.838267  1.370321
C    -0.459034  1.127114  2.692221
C    0.897763  1.486213  3.306064
O    1.127398  1.144561  4.509344
H    -1.058390  2.758249  1.470638
H    -1.228352  1.197375  0.705838
H    -1.248628  1.492982  3.363244
C    -0.600839  -0.401689  2.527214
C    -1.947444  -0.857980  1.951368
S    -2.016418  -0.515428  0.145336
C    -3.802284  -0.440454  -0.163980
H    -0.478171  -0.833950  3.529738
H    0.227450  -0.792567  1.914116
H    -2.786606  -0.348202  2.446633
H    -2.070239  -1.936495  2.107818
H    -4.247458  -1.418985  0.045942
H    -3.915693  -0.218770  -1.231107
H    -4.284626  0.342636  0.430573
O    1.767238  2.088398  2.588038
H    0.316074  1.987250  0.953177
Ba    3.443188  2.070243  4.529764
