34
Energy: -243346.118943 eV PBE+vdW (tier 2 basis)
C    0.180536  1.356641  0.643961
C    -0.134602  1.293609  2.102835
O    0.588066  1.842225  2.959635
H    0.732598  2.273494  0.419721
H    -0.710730  1.288231  0.008538
H    0.826564  0.488479  0.429804
N    -1.249722  0.583158  2.462501
C    -1.475748  -0.053887  3.768307
C    -1.695989  0.930919  4.911666
O    -2.622940  0.665941  5.799155
H    -1.765954  0.165570  1.695541
H    -2.418850  -0.607695  3.663590
C    -0.350929  -1.052604  4.152454
C    -0.238502  -2.217835  3.162936
C    1.097531  -2.968949  3.254242
C    2.320403  -2.148187  2.824368
N    2.139119  -1.563578  1.483749
H    -0.542771  -1.429961  5.170180
H    0.593288  -0.492953  4.200580
H    -0.329078  -1.833878  2.137134
H    -1.071402  -2.920215  3.321318
H    1.025937  -3.864244  2.617183
H    1.265409  -3.343272  4.276170
H    3.210029  -2.796900  2.905534
H    2.491297  -1.314826  3.523626
H    2.119198  -2.308719  0.783331
H    2.956768  -0.997838  1.250830
N    -0.918842  1.967595  5.017842
C    -0.979585  2.956605  6.082449
H    -0.167850  2.021476  4.212183
H    -0.244615  3.738426  5.871754
H    -0.733238  2.505336  7.054388
H    -1.973761  3.422862  6.131153
Ba    -4.187958  0.310391  7.399434
