34
Energy: -243346.696064 eV PBE+vdW (tier 2 basis)
C    -1.185329  0.080155  -1.037679
C    -0.518544  -0.383620  0.216779
O    -0.009369  -1.547663  0.278621
H    -0.867254  1.091303  -1.314835
H    -2.278919  0.107607  -0.911549
H    -0.946653  -0.617103  -1.845653
N    -0.448311  0.404475  1.314412
C    -1.542901  1.236629  1.835066
C    -2.722592  0.288380  2.179940
O    -2.594320  -0.978470  2.102116
H    0.162980  0.018167  2.032626
H    -1.166703  1.614199  2.799398
C    -1.913165  2.473653  0.982407
C    -2.385911  3.704481  1.775014
C    -1.406446  4.232675  2.834023
C    0.027028  4.456721  2.326941
N    0.026818  5.136526  1.028870
H    -2.664209  2.211168  0.225092
H    -1.006099  2.783929  0.444668
H    -3.377787  3.558093  2.241726
H    -2.554140  4.485527  1.021897
H    -1.369440  3.575241  3.719891
H    -1.812379  5.183176  3.211714
H    0.536912  3.487843  2.186065
H    0.593261  4.977921  3.119655
H    -0.338368  6.086543  1.119080
H    0.979131  5.237634  0.677690
N    -3.851948  0.840120  2.582381
C    -5.046289  0.098987  2.992041
H    -3.888365  1.859064  2.601350
H    -5.800197  0.817385  3.323771
H    -4.809909  -0.579210  3.820278
H    -5.449159  -0.478616  2.151321
Ba    -1.396855  -3.080042  1.606623
