34
Energy: -243348.157711 eV PBE+vdW (tier 2 basis)
C    0.368523  1.142066  2.610776
C    -0.367914  -0.157096  2.606889
O    0.053098  -1.151934  3.261393
H    -0.122252  1.922716  2.020474
H    1.382859  0.981035  2.221297
H    0.477107  1.486923  3.647855
N    -1.509140  -0.249985  1.892018
C    -2.323297  -1.462597  1.885176
C    -1.811657  -2.500017  0.866492
O    -1.075161  -3.429209  1.308120
H    -1.836289  0.573712  1.393888
H    -2.088074  -1.940425  2.840249
C    -3.833110  -1.208719  1.926429
C    -4.311526  -0.789656  3.337965
C    -3.628794  -1.520798  4.511588
C    -3.676039  -3.056484  4.464783
N    -2.471589  -3.657092  5.132592
H    -4.331179  -2.140817  1.623126
H    -4.142507  -0.453636  1.187344
H    -5.398957  -0.938744  3.381507
H    -4.155267  0.288186  3.482700
H    -4.091221  -1.172865  5.445776
H    -2.576019  -1.195762  4.585010
H    -3.688810  -3.434838  3.432291
H    -4.602524  -3.417921  4.933024
H    -2.373426  -3.218145  6.054974
H    -2.693036  -4.634152  5.354375
N    -2.153048  -2.385688  -0.409393
C    -1.729814  -3.286790  -1.482410
H    -2.776949  -1.624066  -0.664147
H    -1.176623  -2.723488  -2.243302
H    -2.609398  -3.748504  -1.946462
H    -1.088158  -4.063374  -1.060486
Ba    -0.024165  -3.618032  3.614939
