34
Energy: -243346.85376 eV PBE+vdW (tier 2 basis)
C    -0.460779  0.214794  -0.119488
C    -0.287824  0.199790  1.338011
O    0.819855  0.548936  1.877559
H    -1.036361  1.166264  -0.402282
H    -1.081135  -0.603415  -0.501575
H    0.506088  0.240608  -0.629407
N    -1.307342  -0.130969  2.176990
C    -2.234460  -1.252806  1.990212
C    -1.377532  -2.534662  1.757257
O    -0.139306  -2.543372  2.046166
H    -1.105377  0.097823  3.147691
H    -2.687900  -1.397994  2.984919
C    -3.409193  -1.046333  1.009907
C    -4.300108  0.179133  1.295932
C    -3.754179  1.545712  0.854257
C    -3.597765  1.713010  -0.668259
N    -2.350785  2.431339  -0.991929
H    -4.057837  -1.932281  1.097301
H    -3.051696  -1.035722  -0.028865
H    -4.538398  0.210354  2.370479
H    -5.261271  0.000931  0.791403
H    -2.785922  1.738918  1.335359
H    -4.431919  2.319359  1.240094
H    -4.492355  2.206348  -1.081035
H    -3.538474  0.732920  -1.167072
H    -2.277808  2.592638  -1.998544
H    -2.343460  3.356576  -0.556441
N    -1.977833  -3.619503  1.298904
C    -1.320536  -4.915343  1.114017
H    -2.964302  -3.550918  1.065613
H    -0.539165  -4.843698  0.347871
H    -2.071655  -5.640260  0.790409
H    -0.876117  -5.255251  2.056550
Ba    2.014373  -1.435650  2.606212
