34
Energy: -243347.162449 eV PBE+vdW (tier 2 basis)
C    1.905949  3.828081  3.903931
C    1.605143  2.358505  3.941474
O    2.316590  1.553365  4.564823
H    2.844411  3.973043  3.350435
H    2.080130  4.184895  4.925716
H    1.122759  4.430731  3.431309
N    0.498203  1.934841  3.253503
C    0.177491  0.540073  2.924844
C    -0.229526  -0.305022  4.151861
O    -1.259827  -1.081147  4.083613
H    -0.055870  2.642548  2.784048
H    -0.730918  0.607157  2.311280
C    1.298512  -0.165484  2.084190
C    0.798885  -0.984049  0.881364
C    -0.200045  -2.069732  1.277795
C    -0.748782  -2.992475  0.197625
N    -1.715193  -3.952620  0.839688
H    1.917513  -0.794342  2.738747
H    1.964895  0.622559  1.713246
H    1.670366  -1.438805  0.388628
H    0.336334  -0.317628  0.136462
H    -1.062724  -1.528200  1.712387
H    0.249964  -2.684777  2.083518
H    -1.290031  -2.414384  -0.562144
H    0.056204  -3.531745  -0.319825
H    -1.221064  -4.832879  1.018791
H    -2.429464  -4.214590  0.154170
N    0.520800  -0.237158  5.221813
C    0.279454  -0.963641  6.460856
H    1.365025  0.404166  5.117250
H    0.863629  -0.492640  7.256325
H    0.600904  -2.011103  6.371310
H    -0.782883  -0.929813  6.728744
Ba    -2.601110  -2.888532  3.344660
