34
Energy: -243346.805404 eV PBE+vdW (tier 2 basis)
C    -0.126147  0.785718  -0.141548
C    -0.155395  0.013302  1.137158
O    0.908887  -0.187817  1.803081
H    -0.196515  1.866500  0.059159
H    -0.935407  0.507248  -0.825403
H    0.841444  0.611488  -0.626056
N    -1.321003  -0.472567  1.614842
C    -2.572857  0.275368  1.596622
C    -2.459826  1.391303  2.672889
O    -1.382927  1.552759  3.334564
H    -1.216852  -1.118069  2.398725
H    -2.658270  0.773099  0.618820
C    -3.782139  -0.660898  1.782373
C    -3.885101  -1.731220  0.686415
C    -3.969272  -1.166910  -0.732290
C    -4.141237  -2.241560  -1.812885
N    -4.005123  -1.639879  -3.138510
H    -4.699768  -0.052723  1.777223
H    -3.731720  -1.126049  2.780631
H    -4.776507  -2.337244  0.905494
H    -3.030618  -2.422922  0.761596
H    -3.054708  -0.609309  -0.997433
H    -4.802139  -0.445491  -0.801118
H    -5.096825  -2.774823  -1.645531
H    -3.343079  -2.991091  -1.700775
H    -3.853295  -2.356034  -3.847803
H    -4.856243  -1.145994  -3.409455
N    -3.505726  2.175691  2.863413
C    -3.555385  3.282041  3.823018
H    -4.340633  1.992990  2.312727
H    -4.531003  3.767336  3.738928
H    -2.771100  4.015379  3.602001
H    -3.428985  2.907932  4.845926
Ba    0.974128  1.065928  3.917908
