34
Energy: -243346.005421 eV PBE+vdW (tier 2 basis)
C    -0.044273  -1.949369  -0.753184
C    0.529595  -1.228041  0.418881
O    1.813965  -1.363785  0.664483
H    0.613158  -1.822921  -1.622063
H    -1.051007  -1.608505  -1.010100
H    -0.092680  -3.025541  -0.530776
N    -0.170493  -0.475449  1.216184
C    -1.588655  -0.099758  1.205802
C    -1.577287  1.113659  2.189103
O    -0.534391  1.320572  2.837193
H    0.263844  0.079227  2.004624
H    -1.858699  0.247935  0.197571
C    -2.541306  -1.248319  1.632467
C    -2.685114  -1.509358  3.133631
C    -1.453107  -2.041165  3.871211
C    -1.716027  -2.187780  5.378919
N    -2.028835  -0.887290  5.977969
H    -2.219209  -2.163212  1.110844
H    -3.529400  -1.012225  1.214863
H    -3.502910  -2.236850  3.253846
H    -3.023827  -0.600398  3.652658
H    -0.596117  -1.357184  3.742811
H    -1.149225  -3.018254  3.459209
H    -0.856912  -2.702828  5.847594
H    -2.585387  -2.845432  5.525074
H    -1.181418  -0.364864  6.198876
H    -2.540389  -0.998227  6.851716
N    -2.665614  1.880288  2.300537
C    -3.953134  1.751914  1.625193
H    -2.579343  2.609207  3.005983
H    -3.825459  1.402555  0.594549
H    -4.420583  2.740530  1.581678
H    -4.627242  1.070401  2.161701
Ba    4.033051  -1.506716  1.095533
