34
Energy: -243347.049731 eV PBE+vdW (tier 2 basis)
C    -0.879253  0.120992  -0.784991
C    -0.359345  0.117349  0.614874
O    0.890654  0.072390  0.847864
H    -0.706945  1.102104  -1.253458
H    -1.945747  -0.118263  -0.841587
H    -0.298463  -0.609194  -1.362965
N    -1.215433  0.180869  1.654666
C    -2.398765  1.036212  1.664017
C    -1.905758  2.496464  1.696869
O    -0.661213  2.771322  1.799708
H    -0.783700  0.019315  2.565990
H    -2.981376  0.844608  0.735725
C    -3.325426  0.607398  2.821929
C    -4.705342  1.276882  2.921723
C    -5.592922  1.310799  1.661485
C    -5.757582  -0.016052  0.905923
N    -4.665984  -0.228603  -0.079211
H    -2.802469  0.732928  3.784194
H    -3.459186  -0.474210  2.676592
H    -4.608417  2.295640  3.329960
H    -5.248175  0.725644  3.703707
H    -5.248465  2.065310  0.926869
H    -6.583015  1.667401  1.977464
H    -6.747027  -0.034913  0.424587
H    -5.746432  -0.854188  1.617212
H    -4.613098  -1.221178  -0.315696
H    -4.916566  0.236397  -0.954786
N    -2.804775  3.460042  1.595090
C    -2.501022  4.891419  1.619289
H    -3.778438  3.180142  1.493437
H    -3.443630  5.444285  1.598091
H    -1.902315  5.175102  0.745008
H    -1.954825  5.151523  2.533268
Ba    1.729089  2.191956  1.772239
