34
Energy: -243347.145922 eV PBE+vdW (tier 2 basis)
C    0.772043  1.558758  -0.465386
C    0.523561  0.211137  0.124819
O    0.865122  -0.837217  -0.506278
H    1.370623  2.172427  0.219113
H    -0.167859  2.101760  -0.637516
H    1.304144  1.448404  -1.413688
N    -0.063884  0.066976  1.337754
C    -1.271691  0.774088  1.815271
C    -2.335153  0.753956  0.686517
O    -2.242899  -0.144705  -0.231749
H    0.010058  -0.889575  1.679376
H    -1.681557  0.073165  2.561014
C    -1.083831  2.088579  2.593521
C    -0.798418  3.405902  1.845741
C    -1.425350  4.629703  2.538298
C    -2.865447  4.927925  2.121320
N    -3.794930  3.786029  2.363109
H    -0.295093  1.901054  3.334943
H    -1.999730  2.199579  3.188599
H    -1.174247  3.370143  0.811319
H    0.286607  3.551950  1.769900
H    -0.834590  5.525305  2.302209
H    -1.359368  4.516827  3.632812
H    -2.896865  5.142210  1.042530
H    -3.211794  5.836344  2.636634
H    -4.739089  4.076060  2.094136
H    -3.860836  3.611376  3.370349
N    -3.334433  1.599497  0.733896
C    -4.431112  1.554054  -0.230950
H    -3.413669  2.404158  1.470265
H    -4.940232  0.582762  -0.202559
H    -4.068422  1.735449  -1.250861
H    -5.148772  2.336382  0.031746
Ba    -1.136552  -1.900533  -1.495956
