34
Energy: -243347.135752 eV PBE+vdW (tier 2 basis)
C    0.053575  0.046335  1.362237
C    -0.534465  0.106426  2.730993
O    0.090947  -0.418856  3.723967
H    -0.035939  -0.973974  0.961141
H    1.126004  0.267025  1.433248
H    -0.416419  0.744424  0.663237
N    -1.699325  0.689712  2.975652
C    -2.850810  0.954398  2.116736
C    -3.913516  1.466105  3.125292
O    -3.765209  1.196607  4.337964
H    -2.007749  0.754513  3.959245
H    -2.615193  1.742214  1.388527
C    -3.324421  -0.323184  1.355910
C    -3.287151  -1.643147  2.144858
C    -4.395697  -1.874852  3.199127
C    -3.923000  -2.502505  4.510437
N    -3.158351  -1.538888  5.389357
H    -2.690898  -0.430408  0.465152
H    -4.338162  -0.143498  0.971087
H    -2.293822  -1.746684  2.617334
H    -3.323513  -2.458981  1.410716
H    -5.156780  -2.542423  2.773803
H    -4.928424  -0.944279  3.438014
H    -3.287506  -3.382510  4.297298
H    -4.788461  -2.884569  5.067026
H    -3.415521  -0.577095  5.100399
H    -3.544877  -1.615185  6.335479
N    -4.965814  2.150827  2.671260
C    -5.282189  2.579188  1.310162
H    -5.627596  2.412444  3.400853
H    -5.708743  3.587242  1.347155
H    -6.012428  1.906222  0.841330
H    -4.382525  2.619005  0.689077
Ba    -0.461015  -1.964392  5.468905
