34
Energy: -243346.706306 eV PBE+vdW (tier 2 basis)
C    0.053280  1.442309  0.513542
C    -0.038654  0.871430  1.894811
O    1.028221  0.595771  2.530453
H    1.103597  1.486247  0.211913
H    -0.349847  2.464487  0.502080
H    -0.518533  0.860785  -0.220604
N    -1.226154  0.651035  2.507986
C    -2.403092  0.039929  1.877523
C    -1.999243  -1.377666  1.396246
O    -0.769292  -1.739173  1.388688
H    -1.106804  0.412633  3.492324
H    -3.117759  -0.113309  2.701593
C    -3.130980  0.903809  0.808447
C    -4.443199  1.500904  1.325994
C    -5.214539  2.299727  0.265258
C    -5.497019  1.550676  -1.042212
N    -6.035651  0.197237  -0.797500
H    -2.467198  1.713696  0.487975
H    -3.321561  0.294728  -0.084840
H    -4.233174  2.154886  2.186581
H    -5.083895  0.689283  1.700852
H    -4.675509  3.227674  0.020385
H    -6.165721  2.621738  0.715788
H    -4.569172  1.433830  -1.623726
H    -6.162112  2.177231  -1.659953
H    -6.939671  0.269173  -0.323404
H    -6.241380  -0.250684  -1.692481
N    -2.939661  -2.229475  1.025123
C    -4.400308  -2.071896  1.073915
H    -2.588128  -3.130362  0.703852
H    -4.779648  -1.337308  0.337860
H    -4.715304  -1.768534  2.080524
H    -4.840894  -3.049119  0.859098
Ba    1.535552  -1.789853  2.246850
