34
Energy: -243347.333346 eV PBE+vdW (tier 2 basis)
C    -1.192743  -0.462182  0.131102
C    -0.834181  -0.473639  1.582289
O    0.237486  -1.025932  1.970516
H    -0.320752  -0.172992  -0.466796
H    -2.035692  0.194944  -0.107032
H    -1.459064  -1.490968  -0.156613
N    -1.691528  0.096704  2.442970
C    -1.732126  0.000310  3.919199
C    -0.642512  0.854252  4.580165
O    0.577334  0.502209  4.525196
H    -2.525389  0.491791  2.018403
H    -2.705904  0.429678  4.181147
C    -1.722383  -1.443543  4.463963
C    -2.799525  -2.328867  3.839126
C    -2.780628  -3.771730  4.351009
C    -3.606201  -4.698023  3.446294
N    -3.023163  -4.755348  2.095200
H    -1.852067  -1.376751  5.555913
H    -0.737385  -1.913567  4.305908
H    -2.665828  -2.376631  2.747376
H    -3.791889  -1.885146  4.023598
H    -3.155369  -3.828099  5.383810
H    -1.741001  -4.144518  4.375507
H    -4.629162  -4.302786  3.362619
H    -3.694325  -5.685588  3.928117
H    -2.316394  -5.490067  2.047022
H    -3.734634  -5.013472  1.412234
N    -0.984185  1.944918  5.252954
C    -2.316574  2.530702  5.448935
H    -0.202819  2.423380  5.701302
H    -2.189223  3.479545  5.977180
H    -2.951875  1.880487  6.062789
H    -2.803367  2.741489  4.489827
Ba    2.106928  -1.079599  3.482435
