34
Energy: -243347.14134 eV PBE+vdW (tier 2 basis)
C    -0.350044  -1.342466  -0.121685
C    -0.399398  -0.784451  1.262426
O    0.633546  -0.275787  1.797548
H    -0.072936  -0.536964  -0.816462
H    -1.298596  -1.781636  -0.447198
H    0.440195  -2.102227  -0.181968
N    -1.560686  -0.819236  1.932473
C    -1.787947  -0.171453  3.233295
C    -1.093193  -0.968185  4.362896
O    0.036351  -0.538862  4.770808
H    -2.373619  -1.197641  1.451407
H    -1.229948  0.776975  3.215222
C    -3.271534  0.168597  3.425946
C    -3.576168  0.845609  4.766704
C    -5.072320  1.117832  4.945713
C    -5.407799  1.809163  6.271740
N    -6.854367  1.910587  6.429058
H    -3.895034  -0.729086  3.306748
H    -3.550010  0.843635  2.601890
H    -3.010907  1.789996  4.837843
H    -3.222921  0.216251  5.602192
H    -5.639370  0.174799  4.899067
H    -5.436084  1.737303  4.109234
H    -4.867455  2.777382  6.322775
H    -5.025053  1.196505  7.103320
H    -7.106587  2.154032  7.385647
H    -7.248158  2.634362  5.827503
N    -1.597318  -2.071719  4.895307
C    -2.849091  -2.780082  4.611655
H    -1.024455  -2.459253  5.645237
H    -2.749426  -3.799079  4.996778
H    -3.033244  -2.842227  3.535179
H    -3.699051  -2.298883  5.111349
Ba    2.044182  0.322367  3.682810
