34
Energy: -243347.242133 eV PBE+vdW (tier 2 basis)
C    1.448857  1.386084  1.552049
C    0.347562  1.328585  2.561240
O    -0.156565  2.397278  3.030792
H    1.082383  1.922730  0.665571
H    1.805354  0.396227  1.248521
H    2.289199  1.967478  1.952833
N    -0.096093  0.127081  2.942642
C    -1.286367  -0.143540  3.766345
C    -0.973619  0.060348  5.267226
O    -0.924210  1.245934  5.725444
H    0.345208  -0.687750  2.508123
H    -2.017527  0.647372  3.535926
C    -1.900505  -1.494279  3.365465
C    -0.967072  -2.737035  3.409641
C    -0.842871  -3.476838  2.070107
C    -0.116420  -2.679122  0.980096
N    0.041003  -3.478354  -0.213673
H    -2.288579  -1.365440  2.345112
H    -2.790146  -1.652846  3.990159
H    -1.343757  -3.449605  4.158656
H    0.052600  -2.464303  3.741148
H    -1.836527  -3.766960  1.699258
H    -0.295587  -4.415340  2.243183
H    0.849311  -2.295693  1.414396
H    -0.709158  -1.790997  0.699818
H    0.671727  -4.267476  -0.080114
H    0.363950  -2.942933  -1.016316
N    -0.789570  -0.996592  6.037789
C    -0.508478  -0.967008  7.472464
H    -0.835611  -1.910087  5.589753
H    -1.141205  -1.705636  7.976562
H    -0.723951  0.029424  7.864136
H    0.544913  -1.214795  7.655973
Ba    -0.847250  3.580087  5.013671
