34
Energy: -243348.263486 eV PBE+vdW (tier 2 basis)
C    -2.955191  -0.142016  -0.524575
C    -2.504897  0.685264  0.643015
O    -1.327776  0.574001  1.076377
H    -3.994044  0.034857  -0.821630
H    -2.830667  -1.204198  -0.274769
H    -2.299373  0.064786  -1.380711
N    -3.412412  1.519372  1.181881
C    -3.375329  2.480742  2.312411
C    -2.158293  3.423319  2.303459
O    -0.989415  3.042916  2.582226
H    -4.320837  1.484777  0.728110
H    -4.242733  3.117500  2.091846
C    -3.701267  1.897956  3.718245
C    -2.646385  1.174407  4.567830
C    -2.311006  -0.266466  4.166530
C    -1.232191  -0.920909  5.031211
N    0.076904  -0.183020  4.973031
H    -4.580763  1.248488  3.587204
H    -4.061037  2.759553  4.300522
H    -3.042668  1.153742  5.595030
H    -1.743314  1.802661  4.632036
H    -2.017366  -0.331783  3.106699
H    -3.218621  -0.883704  4.245497
H    -1.049527  -1.941669  4.673258
H    -1.574524  -1.005002  6.073334
H    0.070690  0.538017  5.701576
H    0.811147  -0.826896  5.282288
N    -2.416630  4.704006  2.047339
C    -1.403113  5.758985  2.069217
H    -3.368339  4.971109  1.816001
H    -0.812635  5.693015  2.989573
H    -1.908738  6.727416  2.032831
H    -0.733945  5.671329  1.203932
Ba    0.583294  1.113443  2.514177
