34
Energy: -243346.79919 eV PBE+vdW (tier 2 basis)
C    -1.081543  -0.525174  -0.603576
C    -0.631541  -0.020246  0.716753
O    0.512170  0.541876  0.830121
H    -2.046307  -0.051743  -0.926424
H    -1.274344  -1.605835  -0.588008
H    -0.310342  -0.307170  -1.347978
N    -1.394522  -0.087442  1.839482
C    -2.177288  -1.231412  2.320717
C    -1.174045  -2.333016  2.747983
O    0.042789  -2.277649  2.366012
H    -1.002988  0.480585  2.589974
H    -2.681098  -0.867877  3.229796
C    -3.273617  -1.746255  1.360960
C    -4.204749  -0.627503  0.882835
C    -5.052774  -1.014192  -0.341326
C    -5.193977  0.156362  -1.320747
N    -3.888348  0.476916  -1.939035
H    -3.848139  -2.520747  1.885877
H    -2.815228  -2.257492  0.504508
H    -3.599720  0.249521  0.615163
H    -4.853210  -0.306820  1.711744
H    -6.048467  -1.361822  -0.034691
H    -4.589449  -1.859644  -0.876708
H    -5.545651  1.047457  -0.781611
H    -5.964092  -0.081615  -2.071030
H    -3.750175  -0.104618  -2.767883
H    -3.884083  1.440167  -2.276171
N    -1.571613  -3.331382  3.523855
C    -2.879094  -3.573751  4.139982
H    -0.851110  -4.027406  3.714896
H    -3.430131  -2.638615  4.274629
H    -2.715236  -4.020699  5.126072
H    -3.474244  -4.267282  3.532819
Ba    2.108057  -1.060246  1.730402
