34
Energy: -243347.470354 eV PBE+vdW (tier 2 basis)
C    -1.139849  -0.574178  -0.011865
C    -1.256753  -0.861057  1.460991
O    -0.504251  -1.763547  1.977606
H    -2.112927  -0.398701  -0.489050
H    -0.636806  -1.412245  -0.503145
H    -0.529903  0.326793  -0.181563
N    -2.063978  -0.202207  2.314428
C    -2.645116  1.086580  1.939382
C    -1.636834  2.191767  2.323534
O    -0.657438  1.916396  3.079255
H    -3.190979  -1.389874  2.796069
H    -2.807008  1.159239  0.850328
C    -4.003556  1.301649  2.652591
C    -5.237156  0.844883  1.858682
C    -5.346565  -0.631079  1.438765
C    -5.334151  -1.646245  2.584167
N    -3.939274  -2.179107  2.847226
H    -4.145010  2.365252  2.885636
H    -3.944164  0.804695  3.634752
H    -5.316622  1.456303  0.946946
H    -6.127227  1.098319  2.454171
H    -4.577761  -0.900690  0.695427
H    -6.300243  -0.751895  0.907681
H    -5.964700  -2.515560  2.367319
H    -5.687480  -1.204150  3.524184
H    -3.890822  -2.663918  3.750118
H    -3.678009  -2.865258  2.128368
N    -1.789995  3.431049  1.863962
C    -2.822643  3.966296  0.978639
H    -1.094347  4.092123  2.208854
H    -3.633747  4.433570  1.552664
H    -3.238784  3.179132  0.342836
H    -2.370351  4.724998  0.331660
Ba    0.190277  -0.289910  3.880966
