34
Energy: -243347.149793 eV PBE+vdW (tier 2 basis)
C    -0.345084  -0.671906  -0.028440
C    -0.469294  -0.348627  1.424115
O    0.432567  0.319381  2.021836
H    -1.174908  -1.276166  -0.408784
H    0.599873  -1.201660  -0.206590
H    -0.297812  0.267971  -0.596171
N    -1.553397  -0.767845  2.086424
C    -1.878128  -0.385946  3.465109
C    -0.949879  -1.110073  4.465599
O    0.029955  -0.447475  4.943278
H    -2.289695  -1.237538  1.561644
H    -1.570311  0.663841  3.570625
C    -3.406445  -0.461795  3.763628
C    -4.292286  -1.156408  2.722774
C    -5.772046  -1.207622  3.142746
C    -6.399482  0.165690  3.421113
N    -6.071617  1.121990  2.354363
H    -3.756156  0.574212  3.848336
H    -3.553557  -0.913058  4.755059
H    -3.964211  -2.189792  2.522030
H    -4.242995  -0.590153  1.778546
H    -5.896268  -1.844342  4.032363
H    -6.327971  -1.706524  2.334564
H    -6.010455  0.575201  4.365900
H    -7.481965  0.019430  3.580711
H    -6.579850  0.886833  1.499396
H    -6.389374  2.056573  2.611894
N    -1.121561  -2.370356  4.838379
C    -2.125053  -3.349737  4.416917
H    -0.447859  -2.686262  5.535942
H    -1.737160  -4.346694  4.645413
H    -2.301248  -3.290914  3.339356
H    -3.070849  -3.209869  4.954559
Ba    1.700070  1.036487  3.957356
