34
Energy: -243348.193613 eV PBE+vdW (tier 2 basis)
C    1.066126  1.185287  1.339318
C    0.237671  0.081004  1.909174
O    0.718710  -0.736597  2.743450
H    1.458341  1.796165  2.163622
H    0.516079  1.828385  0.644594
H    1.933452  0.754614  0.821192
N    -1.050992  -0.023126  1.520563
C    -1.952577  -1.023510  2.088920
C    -1.834770  -2.353291  1.313410
O    -0.981287  -3.197176  1.712290
H    -1.415642  0.661777  0.863558
H    -1.507607  -1.252380  3.062740
C    -3.353685  -0.492519  2.397511
C    -4.201932  -1.487351  3.229238
C    -3.431776  -2.377804  4.224709
C    -2.586825  -1.660456  5.287207
N    -1.421450  -2.513095  5.698239
H    -3.902474  -0.209155  1.485523
H    -3.211782  0.445670  2.953772
H    -4.749094  -2.159663  2.553993
H    -4.973839  -0.912130  3.757876
H    -2.782213  -3.069850  3.662317
H    -4.160902  -3.029743  4.726291
H    -3.209291  -1.401494  6.155908
H    -2.172503  -0.711599  4.917699
H    -1.797636  -3.391240  6.073993
H    -0.983359  -2.071276  6.514181
N    -2.612212  -2.550792  0.258310
C    -2.586090  -3.734144  -0.602164
H    -3.286216  -1.824456  0.029389
H    -2.317326  -3.444143  -1.625047
H    -3.575605  -4.206052  -0.611919
H    -1.846319  -4.437937  -0.214514
Ba    0.590417  -3.039116  3.690550
