34
Energy: -243346.731604 eV PBE+vdW (tier 2 basis)
C    0.121984  1.377025  1.414545
C    -0.376538  1.487201  2.819200
O    -0.261837  2.573309  3.471546
H    0.936773  2.095615  1.275940
H    -0.673983  1.639111  0.699251
H    0.475451  0.367853  1.175123
N    -0.978340  0.435556  3.410161
C    -1.903216  -0.465005  2.733700
C    -3.174044  0.368018  2.382009
O    -3.297458  1.569691  2.781689
H    -1.121306  0.529197  4.415868
H    -1.448576  -0.796827  1.787097
C    -2.220243  -1.702845  3.599081
C    -1.086783  -2.734690  3.705011
C    0.169923  -2.287863  4.456742
C    1.181457  -3.424752  4.660589
N    2.385635  -2.914011  5.312448
H    -3.106765  -2.196162  3.175103
H    -2.529201  -1.359551  4.602131
H    -0.817512  -3.076682  2.691745
H    -1.513219  -3.615783  4.208482
H    -0.111965  -1.883727  5.445840
H    0.697622  -1.481731  3.926235
H    1.470840  -3.823174  3.676657
H    0.688866  -4.256397  5.200723
H    3.179411  -3.531817  5.150302
H    2.265536  -2.858785  6.323947
N    -4.108616  -0.212770  1.650082
C    -5.366372  0.422159  1.245912
H    -3.953618  -1.173875  1.356197
H    -5.167937  1.306619  0.629090
H    -5.947256  0.714727  2.128393
H    -5.943586  -0.298058  0.660704
Ba    -2.437700  3.660075  3.813234
