34
Energy: -243346.539459 eV PBE+vdW (tier 2 basis)
C    -0.274445  1.107484  0.451595
C    -0.871291  0.722118  1.766121
O    -0.103607  0.514504  2.761055
H    -0.913383  1.781262  -0.125582
H    -0.081567  0.213825  -0.162292
H    0.690919  1.586821  0.647716
N    -2.207353  0.605893  1.964321
C    -3.169429  -0.119848  1.119458
C    -2.891721  -1.631455  1.311446
O    -1.773784  -2.025520  1.790108
H    -2.427184  0.536735  2.958438
H    -4.156269  0.100690  1.554619
C    -3.219774  0.288658  -0.366445
C    -3.628017  1.751004  -0.580356
C    -3.502171  2.169040  -2.046921
C    -3.928967  3.621004  -2.301627
N    -3.645066  3.988625  -3.684032
H    -3.951159  -0.362847  -0.863532
H    -2.262986  0.065828  -0.857276
H    -3.013642  2.416093  0.048498
H    -4.664196  1.890475  -0.230916
H    -4.106020  1.496650  -2.678922
H    -2.461124  2.057045  -2.390707
H    -3.341649  4.287190  -1.650783
H    -4.988549  3.745091  -1.999866
H    -4.332604  3.597118  -4.327714
H    -3.663425  4.999165  -3.810750
N    -3.817147  -2.522762  0.987897
C    -5.176441  -2.316325  0.479868
H    -3.526182  -3.493483  1.103752
H    -5.556734  -1.330111  0.760280
H    -5.828060  -3.076164  0.923927
H    -5.203241  -2.422739  -0.612027
Ba    0.208002  -1.863586  3.255591
