34
Energy: -243347.08093 eV PBE+vdW (tier 2 basis)
C    -1.414087  -1.018211  -0.385087
C    -1.026779  -0.949249  1.054324
O    0.082154  -1.426793  1.455119
H    -0.672726  -0.502261  -1.010532
H    -2.411475  -0.616249  -0.582570
H    -1.383377  -2.076759  -0.682444
N    -1.851851  -0.372692  1.951991
C    -2.573068  0.875356  1.700016
C    -1.523390  1.976740  1.479198
O    -0.295425  1.770705  1.784338
H    -1.570367  -0.516096  2.923454
H    -3.222864  0.761022  0.799584
C    -3.497811  1.189412  2.893989
C    -4.587529  0.138307  3.163649
C    -5.797879  0.088363  2.214797
C    -5.619784  -0.571171  0.843365
N    -4.982940  0.324745  -0.156385
H    -3.966553  2.168788  2.727632
H    -2.874467  1.308731  3.796998
H    -4.966190  0.349791  4.174008
H    -4.136328  -0.865387  3.229057
H    -6.218168  1.100612  2.085784
H    -6.581446  -0.477820  2.738123
H    -6.605621  -0.917614  0.495188
H    -4.990584  -1.469735  0.939203
H    -4.935056  -0.163196  -1.054477
H    -5.616623  1.109643  -0.332939
N    -1.880394  3.146700  0.972682
C    -3.197770  3.571626  0.495621
H    -1.131503  3.836850  0.921113
H    -3.062850  4.157211  -0.420158
H    -3.696394  4.199547  1.245148
H    -3.817005  2.700000  0.266562
Ba    1.642414  0.326640  2.206016
