27
Energy: -170625.499045 eV PBE+vdW (tier 2 basis)
N    2.014068  -1.099695  2.020921
C    0.669678  -0.704671  2.519153
C    0.809063  -0.137130  3.947808
O    1.656738  -0.540749  4.751581
H    1.935473  -1.849373  1.324030
H    2.475291  -0.314082  1.544954
H    0.255722  0.084751  1.868540
C    -0.273770  -1.936978  2.514809
C    -1.664394  -1.717830  3.134077
C    -2.564734  -2.971657  2.960487
N    -3.758995  -2.911778  3.778877
C    -4.949982  -2.272790  3.529512
N    -5.727978  -2.181432  4.590255
N    -5.203124  -1.786237  2.280904
H    0.233050  -2.760766  3.046599
H    -0.376200  -2.247321  1.462352
H    -2.170731  -0.854093  2.673419
H    -1.580150  -1.513196  4.211944
H    -2.017083  -3.874810  3.265796
H    -2.830082  -3.116385  1.902606
H    -3.713200  -3.247176  4.742886
H    -6.602758  -1.671240  4.411790
H    -4.752198  -2.191535  1.463943
H    -6.137279  -1.423856  2.105823
O    -0.045760  0.779620  4.359459
H    -0.644414  1.091026  3.648418
Cd    3.404544  -1.763554  3.901322
