27
Energy: -170625.938278 eV PBE+vdW (tier 2 basis)
N    -0.054978  -0.885120  0.186889
C    -0.079857  -0.466311  1.545632
C    1.301489  0.079156  2.056945
O    1.380210  0.789108  3.038951
H    0.510824  -1.695630  -0.066010
H    -0.115218  -0.176889  -0.543259
H    -0.760061  0.394237  1.624688
C    -0.552603  -1.631090  2.467992
C    -0.571702  -1.370190  3.983576
C    -1.490496  -0.214110  4.412932
N    -1.427967  0.047781  5.863958
C    -2.202060  -0.508269  6.797888
N    -3.150117  -1.403518  6.638718
N    -2.054794  -0.085175  8.172636
H    0.093071  -2.503516  2.283837
H    -1.555351  -1.907280  2.109361
H    0.443521  -1.168609  4.354623
H    -0.897481  -2.303234  4.469458
H    -2.541177  -0.394240  4.139376
H    -1.190277  0.728007  3.936666
H    -0.673188  0.655401  6.181403
H    -3.306476  -1.808902  5.713569
H    -1.979773  0.933606  8.278240
H    -1.234797  -0.511767  8.622156
O    2.324410  -0.351038  1.315072
H    3.164091  0.010673  1.680125
Cd    -4.164618  -1.421936  8.598418
