27
Energy: -170625.995977 eV PBE+vdW (tier 2 basis)
N    0.283764  1.005654  1.299702
C    -0.272147  -0.003011  2.268916
C    0.753451  -0.460878  3.335392
O    2.032965  -0.489075  3.075565
H    -0.225943  0.980165  0.407473
H    0.185565  1.962976  1.662978
H    -1.075026  0.497170  2.837900
C    -0.835038  -1.231964  1.506034
C    -2.355740  -1.155373  1.228262
C    -3.220980  -2.014051  2.180112
N    -2.814709  -1.949242  3.592927
C    -2.911602  -0.825827  4.345172
N    -3.386702  0.338380  4.158280
N    -2.138491  -0.939786  5.636624
H    -0.601662  -2.142136  2.075799
H    -0.282458  -1.337005  0.557442
H    -2.571784  -1.514784  0.212845
H    -2.687958  -0.105625  1.243718
H    -3.138717  -3.071212  1.899523
H    -4.282866  -1.745401  2.073701
H    -2.542577  -2.825061  4.031977
H    -3.954533  0.438435  3.311384
H    -2.377303  -1.767651  6.203143
H    -2.360474  -0.092165  6.183148
O    0.322534  -0.863714  4.420060
H    -1.111269  -0.946521  5.382780
Cd    2.515483  0.451259  1.244359
