27
Energy: -170626.335033 eV PBE+vdW (tier 2 basis)
N    1.645239  -1.293039  2.054938
C    0.589864  -0.207151  2.145462
C    0.859073  0.520506  3.469485
O    1.552074  0.038077  4.348057
H    2.583322  -0.895578  2.216480
H    1.636023  -1.717205  1.117476
H    0.795417  0.489413  1.320757
C    -0.841666  -0.795127  1.981402
C    -1.748773  -0.924338  3.219345
C    -1.313716  -1.838691  4.374596
N    -1.136808  -3.253611  4.008517
C    0.026045  -3.918099  3.902380
N    0.120883  -5.204004  3.549062
N    1.257177  -3.276578  4.077903
H    -0.756033  -1.769016  1.471279
H    -1.368441  -0.147298  1.268633
H    -2.731111  -1.259701  2.853118
H    -1.933405  0.070546  3.651793
H    -2.088245  -1.807662  5.154030
H    -0.389156  -1.488087  4.846953
H    -1.988882  -3.796661  3.869470
H    -0.707029  -5.746772  3.297718
H    1.506121  -2.063155  2.794626
H    1.289962  -2.630413  4.875653
O    0.240295  1.699240  3.498115
H    0.441940  2.152995  4.348584
Cd    2.201719  -5.302514  4.118000
