27
Energy: -170626.127208 eV PBE+vdW (tier 2 basis)
N    1.027759  -0.069175  -0.386720
C    0.894867  0.015035  1.076408
C    1.764420  -1.067277  1.758875
O    2.720750  -1.590955  1.096060
H    1.994938  -0.256905  -0.670847
H    -0.093504  -0.873242  -1.031215
H    1.364571  0.939309  1.468762
C    -0.572645  -0.000776  1.533404
C    -1.430840  -1.207904  1.092366
C    -2.098706  -1.101462  -0.281416
N    -1.105976  -1.243889  -1.430219
C    -1.395782  -0.373793  -2.601871
N    -0.923508  0.808288  -2.483949
N    -2.076169  -0.991014  -3.598837
H    -1.032979  0.933809  1.174600
H    -0.578431  0.064102  2.629012
H    -2.258474  -1.305189  1.810300
H    -0.871194  -2.155157  1.177187
H    -2.572711  -0.119651  -0.406750
H    -2.868405  -1.873649  -0.403003
H    -1.007037  -2.229603  -1.706613
H    -1.147435  1.430866  -3.267333
H    -2.315981  -0.467296  -4.438228
H    -2.571336  -1.868740  -3.466809
O    1.549514  -1.338276  2.985446
H    0.737113  0.817707  -0.826241
Cd    3.377097  -2.625900  2.989832
