27
Energy: -170627.807781 eV PBE+vdW (tier 2 basis)
N    0.340343  -0.870992  -0.539691
C    0.209726  -0.161602  0.774810
C    1.606654  0.263352  1.258761
O    2.640357  -0.311989  0.903333
H    -0.490362  -1.450937  -0.706092
H    0.350803  -0.182660  -1.303081
H    -0.372495  0.759823  0.610012
C    -0.547490  -0.978849  1.871803
C    -0.381649  -2.508509  2.045806
C    0.987336  -3.124693  2.419330
N    1.591185  -3.736880  1.190158
C    2.980450  -4.154519  1.184981
N    3.657146  -3.610280  0.202481
N    3.425524  -5.001680  2.113157
H    -1.618712  -0.809037  1.691027
H    -0.339798  -0.490138  2.835883
H    -0.778881  -3.039992  1.165392
H    -1.089194  -2.761500  2.848303
H    0.841285  -3.879381  3.206564
H    1.696579  -2.381698  2.810018
H    1.008255  -4.523641  0.874560
H    4.639954  -3.866453  0.070938
H    4.398999  -5.302650  2.142754
H    2.797159  -5.430459  2.787793
O    1.708403  1.251032  2.125327
H    0.858661  1.705866  2.308695
Cd    2.275770  -2.083395  -0.471292
