27
Energy: -170627.422597 eV PBE+vdW (tier 2 basis)
N    1.247298  0.023672  0.139266
C    -0.260057  -0.006908  0.386030
C    -0.505926  0.884218  1.614744
O    0.361477  0.786666  2.558519
H    1.731627  -0.102595  1.048508
H    1.552554  -0.713688  -0.515023
H    -0.747125  0.411196  -0.504347
C    -0.688101  -1.469332  0.671998
C    -2.176576  -1.863068  0.501273
C    -3.282884  -1.128280  1.278408
N    -2.993582  -1.006988  2.718485
C    -3.405748  0.012355  3.501063
N    -2.812765  0.352851  4.697794
N    -4.382354  0.824443  3.083173
H    -0.314470  -1.744808  1.671144
H    -0.145384  -2.117815  -0.034850
H    -2.225986  -2.937316  0.735547
H    -2.453673  -1.785197  -0.560416
H    -4.227413  -1.669860  1.114573
H    -3.397364  -0.106975  0.886128
H    -2.311253  -1.640398  3.128215
H    -2.414335  -0.461044  5.179992
H    -4.748364  1.498073  3.752463
H    -4.921987  0.656485  2.239415
O    -1.558520  1.560222  1.689117
H    1.553909  0.931706  -0.245341
Cd    -1.164005  1.590481  4.043467
