27
Energy: -170626.609792 eV PBE+vdW (tier 2 basis)
N    -1.372659  -0.295803  1.166114
C    -0.293317  -1.135855  1.784280
C    0.749411  -0.141853  2.319328
O    0.344431  0.795285  3.034895
H    -1.026687  0.283541  0.390953
H    -2.113696  -0.890856  0.781068
H    -0.725477  -1.456524  2.742492
C    0.062210  -2.464313  1.103973
C    0.224700  -3.626101  2.127447
C    -0.682166  -3.617151  3.389087
N    -2.129252  -3.434548  3.139831
C    -2.869173  -2.322123  3.358303
N    -2.497634  -1.302230  4.163926
N    -4.025769  -2.171020  2.661247
H    0.947252  -2.409651  0.450333
H    -0.764063  -2.705381  0.419059
H    1.254281  -3.664745  2.515617
H    0.088511  -4.569862  1.581063
H    -0.358335  -2.857748  4.112579
H    -0.553981  -4.576042  3.909498
H    -2.617125  -4.244195  2.753841
H    -1.888751  -1.595286  4.931679
H    -4.775505  -1.658353  3.124796
H    -4.337185  -2.897373  2.018691
O    2.036232  -0.270925  2.113265
H    2.252536  -1.007807  1.502259
Cd    -1.920934  0.592688  3.269328
