27
Energy: -170625.669225 eV PBE+vdW (tier 2 basis)
N    0.045488  -0.347929  -0.172880
C    -0.021578  -0.217905  1.243633
C    1.366853  -0.484628  1.922561
O    2.132087  -1.358798  1.626351
H    0.428093  0.423488  -0.716886
H    0.248441  -1.270289  -0.561268
H    -0.292740  0.824709  1.470932
C    -1.057384  -1.216449  1.832019
C    -1.268219  -1.231543  3.355235
C    -1.955041  -0.014125  3.986108
N    -1.028812  1.125861  4.201055
C    -1.387867  2.276361  4.761918
N    -2.586495  2.635719  5.169431
N    -0.391487  3.310510  4.981001
H    -0.749620  -2.228491  1.527100
H    -2.009606  -1.010720  1.320891
H    -0.338700  -1.462736  3.900055
H    -1.928661  -2.085500  3.565155
H    -2.363349  -0.302223  4.967727
H    -2.789651  0.329217  3.352660
H    -0.039262  0.982224  3.964360
H    -3.368832  1.982506  5.083105
H    0.074038  3.601317  4.112267
H    0.339857  3.009849  5.638193
O    1.588739  0.412125  2.949602
H    2.471288  0.187365  3.325000
Cd    -2.273959  4.671155  5.913525
