27
Energy: -170627.330666 eV PBE+vdW (tier 2 basis)
N    0.644569  0.025091  0.518479
C    0.277065  0.283039  1.961752
C    1.516729  0.242789  2.905843
O    2.703459  0.605069  2.463679
H    0.687802  -0.984885  0.329223
H    -0.076973  0.402518  -0.108038
H    -0.061556  1.332611  1.994815
C    -0.875005  -0.607049  2.471098
C    -0.519148  -2.086685  2.689920
C    -1.510295  -2.839691  3.596790
N    -1.889981  -2.166229  4.863245
C    -1.162972  -2.134002  6.004591
N    0.173359  -2.033213  5.953077
N    -1.794722  -2.201681  7.185400
H    -1.729719  -0.503899  1.785114
H    -1.199625  -0.161284  3.421898
H    0.492180  -2.183777  3.108389
H    -0.509092  -2.644909  1.740007
H    -1.103788  -3.834478  3.828265
H    -2.459425  -2.992344  3.067861
H    -2.888244  -2.016142  4.990422
H    0.713459  -2.162645  6.805048
H    -1.340808  -1.903533  8.045025
H    -2.729238  -2.593164  7.266926
O    1.369272  -0.069057  4.082837
H    0.614827  -1.467687  5.221170
Cd    2.753977  0.920095  0.389349
