27
Energy: -170625.589708 eV PBE+vdW (tier 2 basis)
N    -0.004665  -0.386927  -0.315671
C    0.179605  -0.227277  1.090512
C    1.490365  -0.934809  1.450663
O    1.929913  -1.890469  0.868429
H    0.360746  -1.236316  -0.751546
H    -0.770564  0.086034  -0.789244
H    0.247416  0.849125  1.323021
C    -1.017106  -0.857647  1.913231
C    -0.953474  -0.821085  3.449724
C    -1.049846  0.540699  4.146865
N    0.252399  1.258727  4.150754
C    0.506311  2.445270  4.697739
N    1.645085  3.109121  4.655937
N    -0.513840  3.147668  5.446991
H    -1.098429  -1.907034  1.596089
H    -1.929214  -0.349347  1.565586
H    -0.088835  -1.380252  3.839113
H    -1.831119  -1.392225  3.790872
H    -1.358043  0.372664  5.190307
H    -1.811136  1.171150  3.661099
H    1.040598  0.765829  3.705221
H    2.433808  2.725882  4.128240
H    -0.974287  2.553124  6.147523
H    -1.251305  3.523912  4.837004
O    2.097003  -0.366824  2.549987
H    2.909445  -0.894727  2.724121
Cd    1.307314  4.788429  6.013968
