27
Energy: -170625.929168 eV PBE+vdW (tier 2 basis)
N    1.693954  -0.791665  2.047228
C    0.478095  -0.285522  1.441838
C    1.271093  0.452788  2.697398
O    1.671719  1.632071  2.337546
H    2.500572  -0.609020  1.435409
H    -4.454814  -3.488173  -2.115567
H    0.579117  0.231459  0.481883
C    -0.851099  -0.911791  1.748807
C    -1.065167  -2.167122  0.865835
C    -2.425328  -2.825821  1.169145
N    -2.604098  -4.112619  0.484110
C    -3.328419  -4.347590  -0.624862
N    -3.736287  -3.341336  -1.412571
N    -3.651624  -5.610066  -0.944732
H    -1.638234  -0.166460  1.557318
H    -0.917302  -1.191178  2.809659
H    -0.258886  -2.889451  1.065205
H    -0.998439  -1.902644  -0.201475
H    -3.266622  -2.169174  0.906171
H    -2.518642  -3.026830  2.246126
H    -2.155775  -4.923423  0.906146
H    -3.309214  -2.423373  -1.371129
H    -3.987677  -5.849242  -1.873259
H    -3.624267  -6.356299  -0.256132
O    0.825664  0.320205  3.978987
H    0.961918  -0.606422  4.266960
Cd    3.244672  2.587988  3.556862
