27
Energy: -170627.22672 eV PBE+vdW (tier 2 basis)
N    1.090475  -0.421799  0.133268
C    0.639175  0.496760  1.262796
C    1.858632  0.769214  2.147973
O    2.779359  -0.108973  2.203980
H    1.783498  -1.094477  0.512822
H    0.306788  -0.932440  -0.300780
H    0.313948  1.439502  0.804551
C    -0.543325  -0.095356  2.083079
C    -0.529990  -1.578724  2.521741
C    0.515778  -2.129574  3.514282
N    0.275275  -1.911673  4.961898
C    1.126411  -1.196755  5.753055
N    1.509629  0.046576  5.401403
N    1.541127  -1.708506  6.918672
H    -1.449914  0.052747  1.476542
H    -0.676061  0.580382  2.940981
H    -0.469783  -2.227857  1.631558
H    -1.534386  -1.783384  2.922754
H    1.527633  -1.774736  3.286869
H    0.537859  -3.221176  3.381779
H    -0.254552  -2.649708  5.427564
H    0.782502  0.460364  4.810398
H    1.871604  -1.082435  7.649998
H    1.431599  -2.692505  7.150573
O    1.803597  1.798745  2.880899
H    1.567845  0.108767  -0.612635
Cd    3.223866  0.814530  4.357838
