27
Energy: -170627.126052 eV PBE+vdW (tier 2 basis)
N    0.911617  0.608600  0.837023
C    0.401606  -0.008234  2.031660
C    1.384677  -1.008479  2.654714
O    1.864086  -0.907456  3.824696
H    0.852030  0.016437  0.006005
H    1.850295  1.001231  0.917212
H    0.295878  0.803566  2.791439
C    -0.988938  -0.628625  1.761668
C    -1.852169  -1.057698  2.962366
C    -2.334698  0.073271  3.899037
N    -1.543191  0.066136  5.185072
C    -1.565828  1.254088  6.012041
N    -0.354940  1.681314  6.308232
N    -2.719428  1.801703  6.378838
H    -0.857072  -1.497028  1.098128
H    -1.526844  0.129780  1.172380
H    -1.356483  -1.843297  3.557098
H    -2.741334  -1.548546  2.543540
H    -3.406136  -0.048717  4.114680
H    -2.200991  1.063484  3.439865
H    -1.830182  -0.743270  5.753768
H    -0.234203  2.487268  6.928773
H    -2.759086  2.654486  6.937212
H    -3.610494  1.364115  6.154596
O    1.780759  -1.975509  1.870757
H    2.459428  -2.543244  2.306825
Cd    0.893926  0.399911  5.167923
