27
Energy: -170627.42282 eV PBE+vdW (tier 2 basis)
N    0.204223  0.992043  0.525917
C    0.497298  0.224481  1.795898
C    1.957350  -0.303745  1.873119
O    2.922298  0.250595  1.171799
H    -0.533723  1.687428  0.692024
H    -0.161817  0.360034  -0.198835
H    0.443504  0.970609  2.606887
C    -0.571352  -0.859297  2.074997
C    -0.607460  -2.082982  1.130576
C    0.136088  -3.349495  1.596716
N    -0.390175  -3.884077  2.862681
C    0.313620  -4.143976  3.985068
N    1.471505  -3.525990  4.235604
N    -0.185062  -5.019869  4.874545
H    -1.546751  -0.352264  2.053168
H    -0.446424  -1.182896  3.117536
H    -0.213998  -1.845786  0.126950
H    -1.660619  -2.349458  0.956029
H    1.210688  -3.179244  1.712591
H    0.019613  -4.128536  0.828604
H    -1.328426  -4.279100  2.830659
H    2.091249  -3.873789  4.960996
H    0.186185  -5.077772  5.818224
H    -0.882188  -5.708914  4.609636
O    2.214842  -1.209439  2.659655
H    1.769337  -2.699789  3.709363
Cd    2.256817  1.771249  -0.112336
