27
Energy: -170626.125838 eV PBE+vdW (tier 2 basis)
N    -1.176924  0.874199  2.097333
C    0.020218  -0.015771  2.375434
C    0.765475  -0.036146  1.022731
O    0.237005  0.404952  0.015870
H    -1.054510  1.823718  2.471463
H    -1.189730  0.945426  1.045509
H    0.651294  0.459012  3.139912
C    -0.416033  -1.429754  2.795954
C    -0.957503  -1.591042  4.228399
C    -2.102626  -0.645054  4.665859
N    -3.141818  -0.485236  3.653041
C    -4.270832  -1.126147  3.752956
N    -4.694574  -2.071214  4.632601
N    -5.322108  -0.866270  2.780936
H    0.466924  -2.077074  2.700076
H    -1.142623  -1.803499  2.056137
H    -0.140845  -1.460941  4.954033
H    -1.297139  -2.632863  4.328084
H    -1.691658  0.364610  4.840060
H    -2.490508  -0.982676  5.641319
H    -2.073785  0.457680  2.475504
H    -4.088149  -2.283250  5.429472
H    -5.226747  0.053812  2.340537
H    -5.340730  -1.576961  2.039753
O    1.968046  -0.586391  1.121228
H    2.400385  -0.588790  0.236607
Cd    -6.795970  -1.668788  4.586699
