27
Energy: -170626.172593 eV PBE+vdW (tier 2 basis)
N    -0.423564  0.082717  -0.163059
C    -0.073885  -0.426419  1.214106
C    1.206793  -1.316679  1.188171
O    2.178282  -1.049926  0.347704
H    -0.973752  -0.621802  -0.674372
H    -1.017938  0.918334  -0.098629
H    0.209276  0.467382  1.797436
C    -1.277933  -1.127785  1.877813
C    -1.176622  -1.215247  3.428801
C    -1.473991  -2.599226  4.000277
N    -0.391365  -3.617950  3.604406
C    -0.907792  -4.816666  2.849968
N    -1.269861  -4.537801  1.664230
N    -0.848807  -5.960920  3.572804
H    -1.390009  -2.133082  1.437376
H    -2.186904  -0.565649  1.622100
H    -1.905937  -0.531216  3.884816
H    -0.193858  -0.877301  3.789414
H    -2.424840  -2.998296  3.628186
H    -1.508760  -2.571442  5.095676
H    0.161552  -3.893489  4.427401
H    -1.651237  -5.335564  1.146849
H    -1.191033  -6.824671  3.158745
H    -0.703967  -5.981265  4.577842
O    1.340018  -2.228332  2.004097
H    0.284304  -3.132931  2.946216
Cd    1.630536  0.327710  -1.142405
