34
Energy: -608351.956106 eV PBE+vdW (tier 2 basis)
C    -0.351269  0.220104  -0.557616
C    -0.174166  0.006607  0.902536
O    0.979736  -0.275813  1.372851
H    0.184888  1.125428  -0.879326
H    -1.399241  0.269783  -0.865467
H    0.138056  -0.618040  -1.076370
N    -1.215419  0.104599  1.758164
C    -2.173565  1.218838  1.763728
C    -1.335503  2.497145  1.958884
O    -0.234092  2.445048  2.620434
H    -1.029380  -0.276073  2.688402
H    -2.695126  1.256126  0.798400
C    -3.200628  0.938165  2.889865
C    -4.386885  1.897797  3.057429
C    -4.159023  3.101994  3.979633
C    -5.460555  3.874812  4.263095
N    -6.431542  3.047859  4.951609
H    -2.652659  0.858730  3.844563
H    -3.580874  -0.068662  2.661774
H    -5.210210  1.314330  3.494122
H    -4.764916  2.220608  2.074480
H    -3.422419  3.812770  3.574650
H    -3.741186  2.750346  4.937692
H    -5.911288  4.209231  3.317158
H    -5.208123  4.790528  4.831103
H    -6.236159  2.881018  5.936612
H    -7.402030  3.321155  4.822564
N    -1.707073  3.658695  1.449068
C    -2.890427  4.009264  0.661568
H    -1.074157  4.430026  1.669666
H    -3.624327  4.529367  1.289715
H    -3.356344  3.119626  0.231610
H    -2.581091  4.676225  -0.150489
Pb    1.649508  1.183133  3.021499
