34
Energy: -608352.49592 eV PBE+vdW (tier 2 basis)
C    -0.323787  -0.686349  -0.025919
C    -0.443364  -0.353866  1.422214
O    0.472435  0.341570  1.978377
H    -1.155678  -1.292877  -0.398340
H    0.622396  -1.215929  -0.200910
H    -0.274213  0.250435  -0.599092
N    -1.514060  -0.777864  2.100756
C    -1.846045  -0.399124  3.477282
C    -0.917619  -1.132679  4.470103
O    0.082574  -0.485017  4.953963
H    -2.235623  -1.274847  1.580214
H    -1.548149  0.653739  3.587888
C    -3.375754  -0.481562  3.783400
C    -4.275263  -1.079396  2.693773
C    -5.753636  -1.164665  3.116066
C    -6.421879  0.188191  3.398170
N    -6.241590  1.115214  2.286463
H    -3.705066  0.546921  3.973307
H    -3.523707  -1.018459  4.730279
H    -3.956133  -2.099813  2.417932
H    -4.223107  -0.452274  1.789073
H    -5.862255  -1.804496  4.004991
H    -6.300737  -1.674978  2.309147
H    -5.997028  0.654983  4.299326
H    -7.484832  -0.004316  3.635069
H    -6.749412  0.829586  1.448770
H    -6.523921  2.066092  2.518098
N    -1.089112  -2.382266  4.857520
C    -2.112326  -3.360535  4.485204
H    -0.393459  -2.699358  5.535845
H    -1.649430  -4.352733  4.493464
H    -2.496206  -3.166133  3.481644
H    -2.939014  -3.351989  5.207114
Pb    1.440549  0.981640  3.908794
