34
Energy: -608352.869699 eV PBE+vdW (tier 2 basis)
C    1.172948  0.464268  0.418540
C    0.636139  0.107541  1.764629
O    1.297167  -0.714142  2.480867
H    1.270497  -0.455870  -0.174814
H    2.184781  0.876421  0.532547
H    0.547645  1.178874  -0.126356
N    -0.517169  0.663480  2.156659
C    -1.338434  0.407963  3.363475
C    -0.663853  0.998273  4.615274
O    0.302269  0.391679  5.191776
H    -0.934203  1.298331  1.480637
H    -2.258467  0.982562  3.188321
C    -1.783744  -1.049814  3.547197
C    -2.769863  -1.234689  4.708179
C    -3.465868  -2.605813  4.700497
C    -4.566005  -2.748492  3.640235
N    -4.039651  -2.652301  2.267674
H    -0.923383  -1.750110  3.672149
H    -2.269087  -1.400886  2.615456
H    -3.541209  -0.447943  4.639329
H    -2.268803  -1.076386  5.676343
H    -3.922035  -2.772413  5.686152
H    -2.722057  -3.411542  4.576340
H    -5.300178  -1.940983  3.774604
H    -5.106297  -3.693312  3.819444
H    -3.639915  -3.542570  1.965718
H    -4.783113  -2.430390  1.605501
N    -1.121762  2.139078  5.093392
C    -0.610233  2.840525  6.274142
H    -1.901052  2.574219  4.604184
H    -1.447219  3.068677  6.943777
H    -0.131030  3.778088  5.965775
H    0.115010  2.206194  6.787610
Pb    1.410722  -1.472576  4.584026
