34
Energy: -608352.879779 eV PBE+vdW (tier 2 basis)
C    -3.571679  -0.189265  -0.476108
C    -2.672833  0.453212  0.526665
O    -1.517673  -0.053527  0.720122
H    -3.071313  -0.201645  -1.454007
H    -4.544178  0.304641  -0.570610
H    -3.726279  -1.238507  -0.187121
N    -3.115883  1.528475  1.187463
C    -2.516882  2.245184  2.340478
C    -1.378582  3.162802  1.871962
O    -0.246582  2.682379  1.521465
H    -4.053489  1.828614  0.933564
H    -3.333276  2.884660  2.703461
C    -2.105232  1.375123  3.539055
C    -3.147719  0.334734  3.964179
C    -2.918827  -0.209556  5.382440
C    -3.266257  0.775340  6.506532
N    -2.378159  1.951917  6.516090
H    -1.914054  2.048898  4.399650
H    -1.125089  0.860328  3.384551
H    -3.172966  -0.500602  3.247881
H    -4.147871  0.800054  3.917719
H    -1.876525  -0.553126  5.497365
H    -3.540707  -1.106062  5.512776
H    -3.253619  0.231912  7.466251
H    -4.296476  1.134091  6.367073
H    -2.788154  2.712660  7.058460
H    -1.486378  1.729663  6.962446
N    -1.591595  4.464816  1.852844
C    -0.619105  5.486810  1.455927
H    -2.509662  4.795055  2.142738
H    -0.960824  5.980445  0.537771
H    0.351309  5.017384  1.283458
H    -0.537160  6.232130  2.255351
Pb    0.485714  0.547963  1.508107
