34
Energy: -608352.726848 eV PBE+vdW (tier 2 basis)
C    0.098582  1.381644  0.519469
C    -0.263020  0.128592  1.200014
O    0.526833  -0.885461  1.114956
H    -0.347369  2.269978  0.983006
H    -0.343746  1.304996  -0.523840
H    1.182890  1.492984  0.434475
N    -1.452905  0.061359  1.822051
C    -2.296473  -1.111695  2.139420
C    -1.844535  -1.808609  3.422356
O    -0.709670  -2.404060  3.508185
H    -1.949647  0.947814  1.847847
H    -3.283731  -0.677940  2.339118
C    -2.477848  -2.122043  0.979647
C    -3.458299  -1.664837  -0.119940
C    -3.095790  -0.407296  -0.924257
C    -1.857728  -0.547546  -1.815242
N    -1.326641  0.766500  -2.197831
H    -2.867369  -3.054606  1.415835
H    -1.501266  -2.377037  0.540979
H    -4.449065  -1.520953  0.337985
H    -3.579192  -2.513770  -0.809598
H    -2.967209  0.461753  -0.259461
H    -3.961601  -0.154607  -1.553858
H    -2.111945  -1.178933  -2.685063
H    -1.050708  -1.082104  -1.285123
H    -0.621348  0.682361  -2.931659
H    -2.060577  1.373280  -2.569112
N    -2.646368  -1.856930  4.469605
C    -3.989018  -1.281744  4.637678
H    -2.273301  -2.386022  5.259919
H    -3.981972  -0.201408  4.452725
H    -4.292234  -1.445885  5.675246
H    -4.715794  -1.777929  3.983141
Pb    1.106915  -2.685991  2.240601
