34
Energy: -608353.824619 eV PBE+vdW (tier 2 basis)
C    -0.904838  1.656780  2.174015
C    -1.326846  0.226830  2.196667
O    -0.551820  -0.663709  1.724608
H    0.062555  1.749359  2.686641
H    -1.629687  2.329552  2.643934
H    -0.740807  1.966795  1.132837
N    -2.515353  -0.091398  2.736760
C    -2.973648  -1.469315  2.920851
C    -3.713117  -1.964781  1.671098
O    -3.023270  -2.528072  0.756648
H    -3.087956  0.666288  3.102428
H    -2.058171  -2.064309  2.914587
C    -3.613991  -1.714862  4.289391
C    -2.549975  -1.820994  5.395820
C    -1.612347  -3.047284  5.353955
C    -0.435447  -3.078924  4.354670
N    -0.691585  -3.862302  3.076551
H    -4.189141  -2.652506  4.243345
H    -4.337196  -0.921178  4.537100
H    -3.080874  -1.852443  6.356651
H    -1.947315  -0.898969  5.430023
H    -2.200988  -3.976804  5.262850
H    -1.156225  -3.114184  6.351253
H    0.428156  -3.549343  4.838909
H    -0.119598  -2.063252  4.078291
H    -1.553271  -4.408417  3.186723
H    0.044126  -4.571045  2.988137
N    -5.017448  -1.799951  1.557952
C    -5.833209  -2.203132  0.408255
H    -5.505380  -1.370972  2.341700
H    -6.580246  -2.938444  0.729984
H    -5.187081  -2.641427  -0.355000
H    -6.346444  -1.324269  0.000540
Pb    -0.711562  -2.752322  0.763829
