34
Energy: -608352.121933 eV PBE+vdW (tier 2 basis)
C    -1.461647  2.315741  1.593569
C    -0.750896  1.608937  2.692362
O    -0.328571  2.263253  3.705039
H    -0.915564  3.246494  1.384624
H    -2.465218  2.621815  1.926921
H    -1.539506  1.723931  0.677086
N    -0.538175  0.276382  2.646011
C    -1.570820  -0.698548  2.291533
C    -2.644107  -0.640730  3.399423
O    -2.392029  -0.078970  4.525664
H    0.123334  -0.063873  3.346917
H    -2.025336  -0.403197  1.335022
C    -0.946951  -2.104826  2.164804
C    0.049227  -2.244891  1.004921
C    -0.576929  -2.132906  -0.388410
C    0.443011  -2.386816  -1.511130
N    -0.161346  -2.238928  -2.816446
H    -1.756477  -2.838539  2.049128
H    -0.457156  -2.351402  3.121430
H    0.528824  -3.228880  1.114978
H    0.860731  -1.507168  1.113110
H    -1.012024  -1.134021  -0.559064
H    -1.403624  -2.857092  -0.482827
H    0.891169  -3.390857  -1.364891
H    1.268678  -1.665052  -1.434808
H    0.486173  -2.048466  -3.576568
H    -0.826423  -2.963075  -3.079259
N    -3.834709  -1.183473  3.214064
C    -4.367079  -1.871844  2.035648
H    -4.455776  -1.126959  4.023027
H    -3.792203  -1.621797  1.139992
H    -5.404165  -1.552543  1.886296
H    -4.349849  -2.958608  2.188747
Pb    -1.160885  1.473271  5.700558
