34
Energy: -608352.12857 eV PBE+vdW (tier 2 basis)
C    -0.398151  -0.314347  -0.453868
C    -0.183213  0.003236  0.983076
O    1.003309  0.045414  1.456269
H    -0.096112  0.538702  -1.080724
H    -1.428494  -0.598382  -0.685966
H    0.278277  -1.139238  -0.718455
N    -1.220242  0.242228  1.813660
C    -2.340019  1.122778  1.486627
C    -1.799332  2.579659  1.567344
O    -0.606043  2.824909  1.952618
H    -0.964928  0.247428  2.803127
H    -2.631926  0.932759  0.442190
C    -3.546834  0.856540  2.405258
C    -4.131982  -0.551248  2.215653
C    -5.454199  -0.787556  2.959673
C    -5.332576  -0.869266  4.487729
N    -6.614254  -1.139032  5.090415
H    -4.325428  1.603198  2.186797
H    -3.246699  1.036114  3.450711
H    -3.392376  -1.309199  2.518960
H    -4.310271  -0.713161  1.140838
H    -5.879707  -1.733500  2.591940
H    -6.184286  -0.005697  2.700552
H    -4.963798  0.078014  4.910405
H    -4.575353  -1.642207  4.745651
H    -7.085218  -1.990914  4.794996
H    -6.689098  -0.987534  6.092018
N    -2.616862  3.556362  1.218319
C    -2.307202  4.988263  1.216543
H    -3.555633  3.294965  0.923075
H    -2.379748  5.377958  0.193964
H    -1.297013  5.141566  1.599933
H    -3.027207  5.515736  1.853248
Pb    1.523795  2.056812  2.437611
