34
Energy: -608352.327193 eV PBE+vdW (tier 2 basis)
C    -0.856605  0.048117  -0.814641
C    -0.356218  0.169278  0.576719
O    0.910205  0.228260  0.801144
H    -0.509054  0.891736  -1.427118
H    -1.944302  -0.051596  -0.869308
H    -0.388686  -0.850908  -1.247510
N    -1.195613  0.215454  1.625812
C    -2.402224  1.039005  1.658420
C    -1.931402  2.497461  1.707534
O    -0.690593  2.812452  1.889405
H    -0.758181  0.045685  2.535006
H    -3.003815  0.842325  0.735435
C    -3.306048  0.585931  2.825465
C    -4.682004  1.258085  2.955409
C    -5.593020  1.311492  1.712280
C    -5.734706  0.011891  0.907727
N    -4.648437  -0.135417  -0.095042
H    -2.767726  0.696605  3.780937
H    -3.440404  -0.493494  2.662816
H    -4.574397  2.271603  3.373210
H    -5.210659  0.698175  3.740764
H    -5.288079  2.104539  1.000375
H    -6.586613  1.628187  2.057650
H    -6.725071  -0.009173  0.428701
H    -5.700244  -0.854881  1.582554
H    -4.573493  -1.114609  -0.377862
H    -4.906498  0.370124  -0.945793
N    -2.819077  3.458012  1.557420
C    -2.525553  4.894283  1.595566
H    -3.786203  3.171886  1.405719
H    -3.473266  5.437661  1.565833
H    -1.917057  5.185126  0.730533
H    -1.991088  5.147331  2.517869
Pb    1.454768  2.107267  1.942056
