34
Energy: -608351.37601 eV PBE+vdW (tier 2 basis)
C    -1.154668  0.154781  -0.572262
C    -0.642598  0.388893  0.795342
O    0.670703  0.489248  0.959328
H    -2.016377  0.803736  -0.778889
H    -1.521272  -0.895615  -0.684794
H    -0.373599  0.335887  -1.315318
N    -1.383437  0.480857  1.861493
C    -2.834449  0.409489  2.049621
C    -2.946168  0.873528  3.536571
O    -1.890282  0.966316  4.190019
H    -0.994653  0.657544  2.837462
H    -3.328030  1.139622  1.390490
C    -3.409990  -1.018058  1.811025
C    -4.313819  -1.127855  0.578971
C    -4.625225  -2.572920  0.159054
C    -3.414595  -3.409022  -0.260099
N    -2.600391  -2.753402  -1.287392
H    -3.958246  -1.343016  2.706165
H    -2.555406  -1.704690  1.733362
H    -3.856410  -0.602135  -0.271713
H    -5.263671  -0.609062  0.773614
H    -5.346790  -2.539212  -0.671723
H    -5.137576  -3.106553  0.973312
H    -3.780406  -4.393844  -0.607898
H    -2.759885  -3.626821  0.597685
H    -1.835831  -3.348359  -1.607837
H    -3.151277  -2.481415  -2.104128
N    -4.150146  1.139632  4.049046
C    -5.452665  1.090325  3.391204
H    -4.132277  1.390205  5.036016
H    -6.116642  1.808609  3.882162
H    -5.907048  0.092539  3.461081
H    -5.373314  1.380058  2.337784
Pb    2.611415  0.955916  1.615423
