34
Energy: -608352.745022 eV PBE+vdW (tier 2 basis)
C    -0.008498  0.802162  -0.685132
C    -0.402846  1.554804  0.540656
O    0.037334  2.739128  0.713218
H    -0.330441  1.377692  -1.565000
H    -0.440193  -0.202778  -0.735651
H    1.086383  0.733636  -0.735851
N    -1.230563  0.974525  1.417498
C    -1.881219  1.615405  2.573630
C    -0.914208  1.609792  3.774014
O    0.049250  2.449164  3.814119
H    -1.534441  0.028389  1.197023
H    -2.018798  2.678374  2.315166
C    -3.266708  0.999865  2.815701
C    -4.264899  1.300871  1.682804
C    -5.705158  0.868228  1.991252
C    -5.938176  -0.648808  1.999985
N    -7.323238  -0.949321  2.277706
H    -3.662458  1.419016  3.753493
H    -3.174563  -0.090535  2.965426
H    -3.932944  0.830997  0.742539
H    -4.261251  2.386584  1.499087
H    -6.359865  1.318156  1.229800
H    -6.030575  1.286553  2.955853
H    -5.335449  -1.138085  2.781306
H    -5.593651  -1.070241  1.030099
H    -7.529074  -1.918395  2.504017
H    -7.997351  -0.574572  1.613740
N    -1.089921  0.736833  4.746053
C    -0.253972  0.599718  5.941233
H    -1.893234  0.116135  4.669939
H    0.182816  -0.405919  5.966866
H    -0.873307  0.744700  6.834370
H    0.540419  1.347877  5.916508
Pb    0.853625  4.017286  2.381311
