34
Energy: -608353.213876 eV PBE+vdW (tier 2 basis)
C    -2.022915  -0.855379  0.888683
C    -1.252699  -0.540713  2.129324
O    0.018935  -0.337344  1.987031
H    -3.076115  -1.070540  1.091084
H    -1.556006  -1.706761  0.376034
H    -1.961085  0.000426  0.201706
N    -1.903447  -0.485725  3.275255
C    -1.364571  -0.353625  4.642353
C    -0.596264  0.951768  4.889204
O    0.637949  1.102302  4.581177
H    -2.887246  -1.005550  3.326429
H    -2.267806  -0.273099  5.259991
C    -0.608772  -1.613517  5.117353
C    -1.291522  -2.943803  4.752466
C    -2.629127  -3.308811  5.426376
C    -3.866982  -2.426425  5.208181
N    -4.065420  -2.008017  3.788752
H    -0.465647  -1.531047  6.205456
H    0.408963  -1.634046  4.687590
H    -0.581341  -3.739345  5.017940
H    -1.390866  -3.012356  3.658345
H    -2.483608  -3.394299  6.513626
H    -2.871564  -4.328203  5.089257
H    -3.817065  -1.509393  5.813275
H    -4.742949  -2.978713  5.579485
H    -4.119156  -2.840077  3.193354
H    -4.978259  -1.554064  3.696711
N    -1.239294  1.929157  5.500537
C    -0.672542  3.232846  5.855380
H    -2.215288  1.769468  5.739464
H    0.414250  3.150259  5.932177
H    -1.089003  3.544398  6.818569
H    -0.934700  3.978010  5.092976
Pb    1.893163  0.232217  2.954461
