34
Energy: -608352.765674 eV PBE+vdW (tier 2 basis)
C    -0.961163  1.969683  1.130354
C    -0.942219  0.521434  1.486548
O    0.082429  -0.178640  1.197377
H    -0.114089  2.462240  1.629259
H    -1.889074  2.475299  1.416890
H    -0.800718  2.081637  0.049761
N    -1.996829  -0.001792  2.125715
C    -2.077274  -1.345304  2.726581
C    -2.436188  -2.369080  1.630208
O    -1.516378  -2.841285  0.880638
H    -2.769916  0.630687  2.322719
H    -1.060564  -1.613489  3.055412
C    -2.986765  -1.311481  3.964059
C    -2.942402  -2.589317  4.814792
C    -3.800556  -2.473980  6.081599
C    -3.727529  -3.752794  6.956095
N    -4.495003  -3.709967  8.169413
H    -4.026319  -1.067745  3.678004
H    -2.651407  -0.461387  4.578000
H    -1.896807  -2.791876  5.099452
H    -3.272718  -3.461303  4.226717
H    -4.851951  -2.284304  5.813296
H    -3.468250  -1.612861  6.681790
H    -2.676569  -3.946033  7.221221
H    -4.068873  -4.615700  6.363193
H    -4.166383  -3.108291  8.917824
H    -5.506576  -3.742843  8.094370
N    -3.694530  -2.728051  1.466504
C    -4.199445  -3.653567  0.449954
H    -4.373198  -2.341933  2.119488
H    -3.369757  -3.998976  -0.169614
H    -4.941736  -3.140668  -0.173367
H    -4.675103  -4.510695  0.941583
Pb    0.645861  -2.245621  0.486161
