34
Energy: -608351.37842 eV PBE+vdW (tier 2 basis)
C    1.075445  0.243006  0.628669
C    0.330293  -0.243347  1.817299
O    0.954291  -0.258412  2.964084
H    1.996587  -0.345538  0.513053
H    1.382100  1.286165  0.792458
H    0.480126  0.180107  -0.287537
N    -0.911594  -0.661211  1.711355
C    -1.762220  -1.258489  2.736589
C    -2.902842  -1.944401  1.872465
O    -2.622963  -2.126692  0.683825
H    -1.312573  -0.881551  0.772891
H    -1.226380  -2.129192  3.179335
C    -2.256651  -0.319975  3.836039
C    -3.191130  0.817611  3.399670
C    -4.057149  1.385871  4.533442
C    -4.766930  0.341918  5.406313
N    -5.377198  -0.742469  4.604312
H    -1.400361  0.194421  4.381284
H    -2.738832  -0.943712  4.602770
H    -3.841576  0.404226  2.613077
H    -2.623227  1.625058  2.918000
H    -4.802019  2.050291  4.070758
H    -3.461176  2.036380  5.191871
H    -5.500239  0.863295  6.041650
H    -4.056597  -0.130327  6.103360
H    -5.857018  -1.393180  5.230876
H    -6.115048  -0.354908  4.009122
N    -4.020236  -2.318548  2.491364
C    -5.076123  -3.014275  1.749540
H    -4.320016  -1.853416  3.377314
H    -5.760179  -3.470214  2.471361
H    -4.633021  -3.793203  1.120743
H    -5.634540  -2.323415  1.102929
Pb    0.655498  -0.671559  5.046793
