34
Energy: -608352.817387 eV PBE+vdW (tier 2 basis)
C    -0.475850  0.488816  0.667331
C    -0.759838  -0.080763  2.017388
O    0.088999  -0.874327  2.529580
H    -1.234342  1.199080  0.322331
H    -0.409202  -0.345618  -0.043769
H    0.505227  0.981748  0.683095
N    -1.894239  0.288351  2.631736
C    -2.492895  -0.177462  3.903333
C    -1.616176  0.225185  5.103900
O    -0.620333  -0.491732  5.457750
H    -2.468525  0.938563  2.102835
H    -3.432879  0.382471  3.970892
C    -2.843849  -1.674387  3.966944
C    -3.514925  -2.281672  2.728692
C    -3.069958  -3.738763  2.489469
C    -1.626621  -3.901920  2.014660
N    -1.349036  -3.188708  0.796320
H    -3.465811  -1.821057  4.862153
H    -1.932056  -2.262476  4.185517
H    -3.287026  -1.683941  1.835629
H    -4.605050  -2.255330  2.851654
H    -3.727339  -4.191335  1.731425
H    -3.218214  -4.334463  3.402296
H    -1.364149  -4.972565  1.980322
H    -0.920225  -3.515151  2.831519
H    -0.565261  -3.578046  0.274907
H    -2.157194  -3.152616  0.175866
N    -1.906210  1.308048  5.803385
C    -3.001313  2.266607  5.603239
H    -1.282718  1.478176  6.594316
H    -2.990694  2.673559  4.585629
H    -2.848330  3.096090  6.299023
H    -3.974153  1.809738  5.823660
Pb    0.535011  -2.107902  4.333900
