34
Energy: -608353.247511 eV PBE+vdW (tier 2 basis)
C    0.161905  0.263748  1.759764
C    -1.027806  0.298795  2.648891
O    -0.902691  0.193176  3.912086
H    0.710706  1.215572  1.836904
H    -0.086202  0.065554  0.712943
H    0.845851  -0.511186  2.132133
N    -2.277663  0.445950  2.149670
C    -2.685124  1.396728  1.123151
C    -2.297662  2.809300  1.603759
O    -2.107544  3.043141  2.847385
H    -3.004919  0.250503  2.836629
H    -2.168153  1.166214  0.181812
C    -4.212550  1.299503  0.895450
C    -5.128247  1.809420  2.038563
C    -5.777573  0.778376  2.983519
C    -4.965727  0.076022  4.071981
N    -4.306390  1.017186  5.051396
H    -4.438184  0.253279  0.640653
H    -4.434960  1.874138  -0.012249
H    -5.969084  2.324287  1.556170
H    -4.625435  2.602509  2.615339
H    -6.244575  -0.017909  2.383887
H    -6.621318  1.281398  3.482583
H    -4.198667  -0.610359  3.679669
H    -5.652348  -0.574455  4.632571
H    -4.946383  1.804800  5.213482
H    -4.261163  0.535107  5.957060
N    -2.186137  3.805469  0.741729
C    -2.366982  3.799136  -0.712630
H    -1.971742  4.708683  1.167602
H    -2.203435  2.800535  -1.127306
H    -1.633991  4.481210  -1.155601
H    -3.375231  4.143330  -0.976306
Pb    -1.949034  2.015478  4.932290
