34
Energy: -608351.091232 eV PBE+vdW (tier 2 basis)
C    0.463217  0.006857  0.189047
C    0.111494  -0.410602  1.571463
O    0.846039  -1.341904  2.134088
H    -0.200666  0.763134  -0.223463
H    0.425225  -0.870020  -0.470005
H    1.494212  0.394709  0.204019
N    -0.789907  0.139357  2.368978
C    -2.000568  0.919321  2.059254
C    -2.757004  0.206998  0.888147
O    -2.235473  -0.724906  0.276311
H    -0.777103  -0.260823  3.306893
H    -2.624483  0.765318  2.952503
C    -1.803398  2.455793  1.975617
C    -0.975718  3.081101  0.847614
C    -1.564394  3.042880  -0.573831
C    -2.781220  3.957731  -0.783499
N    -2.459465  5.348152  -0.583794
H    -1.363200  2.758012  2.937017
H    -2.813091  2.894495  1.987474
H    0.037224  2.653923  0.845194
H    -0.830671  4.137170  1.121333
H    -1.859028  2.026689  -0.876203
H    -0.778923  3.345928  -1.283776
H    -3.602604  3.697868  -0.099203
H    -3.174050  3.773405  -1.805569
H    -1.734237  5.743018  -1.178628
H    -3.234958  5.988882  -0.439855
N    -3.994866  0.678036  0.649289
C    -4.881870  0.090713  -0.354067
H    -4.384732  1.377836  1.271327
H    -5.541654  0.869190  -0.750514
H    -5.492902  -0.713299  0.076920
H    -4.275747  -0.324441  -1.164524
Pb    2.135450  -3.042302  1.841713
