34
Energy: -608352.607193 eV PBE+vdW (tier 2 basis)
C    -1.396759  -0.809269  -0.302404
C    -0.483024  -0.989474  0.855220
O    0.671126  -1.531240  0.677756
H    -2.396133  -0.467121  -0.020082
H    -1.485100  -1.790201  -0.795904
H    -0.957320  -0.134583  -1.050802
N    -0.836128  -0.616230  2.096785
C    -1.402121  0.712370  2.390325
C    -0.183013  1.627898  2.667166
O    0.940838  1.382817  2.043372
H    -0.241102  -0.999358  2.833384
H    -1.821923  1.090463  1.444430
C    -2.510230  0.711439  3.438168
C    -2.086553  0.316869  4.862306
C    -2.973772  0.939887  5.954787
C    -3.204370  2.446833  5.814814
N    -1.941569  3.191156  5.529154
H    -3.310782  0.052864  3.074137
H    -2.944774  1.720232  3.425461
H    -1.042198  0.618974  5.044917
H    -2.103994  -0.776346  4.974192
H    -2.521909  0.721206  6.933408
H    -3.960011  0.453985  5.967858
H    -3.684252  2.824471  6.729023
H    -3.898509  2.667387  4.992470
H    -2.158110  4.190847  5.477944
H    -1.310888  3.097522  6.331911
N    -0.287351  2.657744  3.457546
C    0.809611  3.612376  3.628671
H    -1.113411  2.803850  4.215004
H    1.163408  3.975409  2.657475
H    1.652694  3.154992  4.164678
H    0.435909  4.457736  4.213714
Pb    2.358846  -0.098596  1.169092
