34
Energy: -608352.663453 eV PBE+vdW (tier 2 basis)
C    -1.910704  -0.074421  0.862545
C    -1.128144  -0.082438  2.134347
O    0.119066  -0.327296  2.080506
H    -2.976199  0.133409  1.004802
H    -1.794485  -1.051377  0.372727
H    -1.481819  0.673126  0.181323
N    -1.779307  0.160871  3.280608
C    -1.300048  0.076389  4.677562
C    -0.377191  1.253148  5.017272
O    0.834273  1.292232  4.609477
H    -2.775512  0.333674  3.177222
H    -2.210394  0.192876  5.275514
C    -0.685837  -1.280371  5.079106
C    -1.593629  -2.491575  4.835396
C    -2.912595  -2.455363  5.615827
C    -3.700096  -3.780747  5.502394
N    -4.970643  -3.677488  6.181265
H    -0.428385  -1.206257  6.147423
H    0.277902  -1.456487  4.557625
H    -1.022486  -3.385713  5.126630
H    -1.792950  -2.604630  3.758008
H    -3.577131  -1.651582  5.258944
H    -2.713981  -2.251428  6.680854
H    -3.067621  -4.600665  5.892295
H    -3.888991  -4.003637  4.443006
H    -5.732089  -4.201568  5.760819
H    -4.941993  -3.829862  7.186188
N    -0.819572  2.243694  5.772401
C    -2.150206  2.428404  6.367771
H    -0.124372  2.966537  5.966135
H    -2.933047  2.418469  5.600542
H    -2.164323  3.409120  6.850937
H    -2.352573  1.667181  7.131146
Pb    2.041395  0.001832  3.204723
