34
Energy: -608352.659177 eV PBE+vdW (tier 2 basis)
C    1.160033  0.560238  0.655319
C    0.640392  0.450806  2.048644
O    1.386474  0.799368  3.021245
H    2.084137  -0.026492  0.565298
H    1.429710  1.608265  0.462146
H    0.442127  0.227918  -0.101605
N    -0.606542  0.002926  2.245353
C    -1.305776  -0.021209  3.536964
C    -0.777232  -1.176341  4.413896
O    0.105241  -0.900016  5.305694
H    -1.152745  -0.225627  1.417522
H    -0.995453  0.883781  4.083272
C    -2.829580  0.073317  3.353513
C    -3.285746  1.489092  2.977258
C    -4.805197  1.586662  2.795595
C    -5.284929  3.025553  2.556555
N    -5.022353  3.876826  3.706554
H    -3.304259  -0.227059  4.300004
H    -3.170301  -0.650423  2.597608
H    -2.788467  1.816364  2.048583
H    -2.978082  2.198720  3.761854
H    -5.312098  1.183503  3.687991
H    -5.132038  0.964613  1.948572
H    -6.358780  2.992903  2.292507
H    -4.765944  3.456108  1.687945
H    -5.632566  3.695472  4.502267
H    -5.029393  4.871924  3.494537
N    -1.179283  -2.429931  4.311095
C    -2.150651  -3.050491  3.404598
H    -0.736818  -3.054698  4.987642
H    -1.918692  -4.118338  3.351665
H    -2.070912  -2.634222  2.396364
H    -3.173495  -2.931124  3.781668
Pb    1.809260  0.586575  5.233605
