34
Energy: -608353.314612 eV PBE+vdW (tier 2 basis)
C    -0.161465  -0.120916  0.938890
C    -1.119402  -0.440742  2.028051
O    -0.788979  -1.220111  2.980800
H    0.630997  0.540237  1.322853
H    -0.635067  0.335743  0.065121
H    0.341048  -1.052130  0.641592
N    -2.367472  0.084943  2.042843
C    -2.704830  1.486233  1.798466
C    -1.838129  2.353492  2.740032
O    -1.368006  1.877555  3.825861
H    -2.984702  -0.364547  2.716984
H    -2.493053  1.751542  0.752481
C    -4.206609  1.715221  2.095952
C    -4.643205  1.369378  3.535875
C    -5.131632  -0.079980  3.781258
C    -4.825860  -0.626607  5.174358
N    -3.441051  -1.218361  5.293447
H    -4.790234  1.144651  1.358771
H    -4.419381  2.772655  1.891723
H    -5.461210  2.046133  3.812422
H    -3.833806  1.623044  4.239643
H    -4.768155  -0.794101  3.020067
H    -6.221318  -0.111064  3.646782
H    -5.546562  -1.413345  5.438210
H    -4.914163  0.161746  5.933223
H    -3.356371  -1.588241  6.248804
H    -3.401143  -2.055814  4.698354
N    -1.633103  3.611675  2.392777
C    -0.903679  4.614476  3.173232
H    -2.024639  3.919617  1.504348
H    -1.582245  5.431359  3.447129
H    -0.082310  5.018326  2.569924
H    -0.504722  4.148549  4.076248
Pb    -1.133842  -0.128243  5.018546
