34
Energy: -608352.797512 eV PBE+vdW (tier 2 basis)
C    -0.652176  -0.547378  0.159206
C    -0.524498  -0.504379  1.645521
O    0.559503  -0.916465  2.175371
H    -1.614791  -0.177042  -0.208006
H    -0.514420  -1.585971  -0.173755
H    0.160771  0.038790  -0.290389
N    -1.558730  -0.045849  2.360277
C    -1.769164  -0.039059  3.827080
C    -0.927018  1.052459  4.502090
O    0.333739  0.919230  4.664647
H    -2.361385  0.247688  1.809784
H    -2.824920  0.243217  3.940829
C    -1.623033  -1.409362  4.514939
C    -2.510467  -2.494734  3.904017
C    -2.528908  -3.804264  4.707254
C    -3.352510  -3.719319  5.998179
N    -4.718129  -3.295383  5.711197
H    -1.870565  -1.253573  5.576369
H    -0.569578  -1.765487  4.511889
H    -2.196086  -2.697271  2.870312
H    -3.550027  -2.121729  3.867220
H    -1.507171  -4.140770  4.944467
H    -2.957134  -4.589295  4.066238
H    -2.914829  -2.990813  6.699526
H    -3.296847  -4.697063  6.511906
H    -5.240771  -3.988256  5.174457
H    -5.250687  -3.079102  6.552120
N    -1.548836  2.129798  4.945175
C    -0.919745  3.256158  5.640274
H    -2.552953  2.190718  4.790417
H    -1.502388  3.489483  6.538371
H    -0.905434  4.134579  4.982765
H    0.101375  2.987483  5.918405
Pb    1.789830  -0.683016  4.033355
