34
Energy: -40375.2578147 eV PBE+vdW (tier 2 basis)
C    -3.066867  0.740411  -0.271248
C    -2.241309  0.199688  0.853921
O    -1.032859  0.531613  0.967430
H    -2.568390  0.509491  -1.221928
H    -3.099939  1.835659  -0.188685
H    -4.090577  0.353417  -0.296858
N    -2.848002  -0.641675  1.717120
C    -2.346660  -1.316444  2.937866
C    -1.816117  -0.310939  3.979823
O    -0.706351  0.271414  3.828014
H    -3.825919  -0.826337  1.512869
H    -3.253172  -1.769864  3.359411
C    -1.390105  -2.525436  2.695195
C    0.045737  -2.266198  2.295584
C    0.425335  -2.119172  0.945087
C    1.066741  -2.185956  3.263378
C    1.743460  -1.843013  0.576046
C    2.397131  -1.915782  2.916952
C    2.756094  -1.762559  1.559029
O    4.004649  -1.532262  1.126728
H    -1.874462  -3.155347  1.935922
H    -1.398613  -3.110666  3.625835
H    -0.324118  -2.213141  0.159114
H    0.824249  -2.324300  4.317636
H    2.023106  -1.746643  -0.472899
H    3.161726  -1.879826  3.694923
H    4.664317  -1.617147  1.838912
N    -2.572012  -0.113266  5.054309
C    -2.239613  0.784460  6.161039
H    -3.460597  -0.603626  5.110587
H    -2.882037  1.673562  6.129597
H    -1.193628  1.087120  6.075587
H    -2.398227  0.261034  7.110324
Ca    0.753032  0.340732  2.183380
