34
Energy: -40373.9998016 eV PBE+vdW (tier 2 basis)
C    1.097385  -0.618031  1.061565
C    -0.235653  0.025799  0.827584
O    -1.072851  -0.423635  0.031537
H    1.781741  -0.012298  1.665700
H    1.560650  -0.848772  0.095451
H    0.930340  -1.576253  1.573995
N    -0.515346  1.166786  1.542667
C    -1.862284  1.724685  1.639112
C    -2.287733  2.509440  0.369530
O    -2.826496  3.678610  0.449300
H    0.201943  1.544241  2.153656
H    -2.553281  0.862582  1.680555
C    -1.944204  2.528073  2.951201
C    -3.243717  3.227486  3.279390
C    -4.513945  2.668708  3.023497
C    -3.218666  4.502380  3.891049
C    -5.700027  3.352369  3.329934
C    -4.390493  5.198061  4.214110
C    -5.655695  4.616859  3.963577
O    -6.732573  5.323216  4.328377
H    -1.138619  3.277016  2.963701
H    -1.718573  1.821936  3.766347
H    -4.597444  1.681433  2.567161
H    -2.258011  4.965869  4.125092
H    -6.661268  2.877111  3.124745
H    -4.346081  6.167652  4.711489
H    -7.561020  4.815860  4.245523
N    -2.121996  1.888858  -0.769517
C    -2.445052  2.416490  -2.089666
H    -1.755174  0.900623  -0.668615
H    -3.393251  1.990861  -2.444831
H    -1.653460  2.122687  -2.787166
H    -2.517371  3.506867  -2.058229
Ca    -4.203772  4.888428  1.434178
