34
Energy: -40374.2791528 eV PBE+vdW (tier 2 basis)
C    0.955310  -0.891576  2.276407
C    -0.046420  -0.036357  1.577432
O    -0.013778  0.078438  0.304534
H    0.888614  -1.911219  1.871617
H    0.808996  -0.923664  3.360585
H    1.967977  -0.526866  2.057176
N    -0.968668  0.592953  2.304007
C    -2.178282  1.278748  1.815942
C    -1.844195  2.626065  1.143020
O    -1.388623  2.634112  -0.051567
H    -1.031203  0.318763  3.291779
H    -2.616434  0.659534  1.015473
C    -3.195959  1.351681  2.987017
C    -3.337651  0.026491  3.692968
C    -2.653023  -0.209777  4.899202
C    -4.109553  -1.011305  3.151563
C    -2.721610  -1.441809  5.540128
C    -4.193927  -2.245978  3.785780
C    -3.494793  -2.472765  4.984252
O    -3.529256  -3.641753  5.657857
H    -4.155155  1.699785  2.579300
H    -2.864415  2.095461  3.730732
H    -2.097057  0.599910  5.380718
H    -4.679828  -0.851540  2.234364
H    -2.212962  -1.615376  6.487055
H    -4.818702  -3.033444  3.361692
H    -4.130993  -4.274018  5.229397
N    -2.071309  3.747534  1.795168
C    -1.841681  5.099730  1.284199
H    -2.451049  3.665554  2.736147
H    -1.740235  5.067079  0.197262
H    -0.930475  5.519266  1.729667
H    -2.694710  5.730164  1.556821
Ca    -0.342953  1.320179  -1.348692
