34
Energy: -40375.2586433 eV PBE+vdW (tier 2 basis)
C    1.018372  -0.184803  0.572833
C    0.612176  0.028566  1.997582
O    1.464527  0.388813  2.850534
H    1.395513  0.765125  0.168903
H    0.210264  -0.549030  -0.069593
H    1.854171  -0.895992  0.542500
N    -0.684395  -0.180305  2.307718
C    -1.420144  -0.022921  3.584915
C    -1.307809  1.409025  4.142726
O    -0.247434  1.831624  4.681896
H    -1.266708  -0.466354  1.525895
H    -2.466504  -0.171928  3.288385
C    -1.160167  -1.131029  4.652304
C    0.135857  -1.117202  5.432593
C    0.230953  -0.455432  6.676375
C    1.287044  -1.780304  4.967609
C    1.428299  -0.401991  7.394648
C    2.497550  -1.741632  5.669923
C    2.577118  -1.067826  6.908810
O    3.681941  -1.002879  7.666438
H    -1.266017  -2.092950  4.131592
H    -1.999823  -1.074513  5.359874
H    -0.646801  0.039897  7.093173
H    1.251093  -2.333653  4.029119
H    1.479826  0.094975  8.363423
H    3.364687  -2.278069  5.281159
H    4.392343  -1.581379  7.334300
N    -2.386469  2.177895  4.056886
C    -2.443799  3.555258  4.554707
H    -3.216701  1.803908  3.607161
H    -1.796736  4.206585  3.954358
H    -2.117829  3.591563  5.600166
H    -3.476411  3.906028  4.483589
Ca    1.767013  0.980930  4.917499
