34
Energy: -40374.0838726 eV PBE+vdW (tier 2 basis)
C    0.433741  2.234408  0.770122
C    0.201792  0.815450  1.166420
O    0.942297  -0.116210  0.670239
H    1.477563  2.511743  0.967567
H    -0.231831  2.931109  1.288700
H    0.275642  2.328085  -0.313906
N    -0.764321  0.529520  2.012148
C    -1.268971  -0.771061  2.434526
C    -2.694903  -0.398178  2.985866
O    -2.917169  0.787916  3.235073
H    -1.401404  1.264053  2.393076
H    -1.355927  -1.436999  1.561403
C    -0.424447  -1.436331  3.556217
C    0.850050  -2.140920  3.146364
C    2.120790  -1.648935  3.520124
C    0.822252  -3.377512  2.466043
C    3.300270  -2.357008  3.254545
C    1.990920  -4.107250  2.191133
C    3.247635  -3.625369  2.627994
O    4.410722  -4.270380  2.463709
H    -1.064987  -2.176072  4.058602
H    -0.199883  -0.672123  4.311978
H    2.193282  -0.700349  4.054632
H    -0.133790  -3.810319  2.165732
H    4.266378  -1.977939  3.590425
H    1.915793  -5.080199  1.701296
H    4.291838  -5.188200  2.156850
N    -3.557210  -1.407305  3.170009
C    -4.908619  -1.218117  3.703147
H    -3.300575  -2.339142  2.861900
H    -5.001588  -0.184728  4.046775
H    -5.076565  -1.900313  4.544173
H    -5.656806  -1.408512  2.924071
Ca    2.236030  -1.717812  0.778048
