34
Energy: -40373.8819785 eV PBE+vdW (tier 2 basis)
C    0.268982  1.414854  1.377100
C    -0.255413  0.837415  2.645274
O    0.071840  1.313121  3.770917
H    0.050599  2.490915  1.356778
H    -0.146019  0.940784  0.481661
H    1.363471  1.314666  1.365145
N    -1.109637  -0.231631  2.570725
C    -1.570557  -0.755279  3.843521
C    -0.627623  -1.792177  4.473790
O    0.074724  -1.377084  5.449821
H    -1.362445  -0.615430  1.664804
H    -1.311006  0.133379  4.400189
C    -3.072828  -0.834049  4.267005
C    -3.069800  -0.078507  5.596060
C    -3.102137  1.330990  5.591827
C    -2.715965  -0.712896  6.801928
C    -2.778697  2.082489  6.729670
C    -2.383850  0.018373  7.948371
C    -2.433167  1.428700  7.933743
O    -2.127253  2.064128  9.080394
H    -3.439224  -1.861776  4.369919
H    -3.697635  -0.324881  3.522141
H    -3.376196  1.865410  4.680510
H    -2.679279  -1.801505  6.853972
H    -2.852647  3.171121  6.696722
H    -2.139800  -0.488593  8.882012
H    -2.342592  3.013466  9.042555
N    -0.544628  -3.036804  4.036664
C    -1.264109  -3.645582  2.919582
H    0.138274  -3.620568  4.523145
H    -0.581357  -3.825600  2.079465
H    -2.082987  -2.998928  2.590628
H    -1.690065  -4.603338  3.239547
Ca    -0.188974  0.756814  6.039416
