34
Energy: -40374.2804906 eV PBE+vdW (tier 2 basis)
C    -3.024508  -1.092315  -0.417036
C    -2.081286  -1.111604  0.737534
O    -0.885810  -1.535908  0.580653
H    -4.015876  -0.710611  -0.153920
H    -3.122320  -2.104830  -0.830914
H    -2.593565  -0.463527  -1.209139
N    -2.507463  -0.673612  1.921483
C    -1.687890  -0.376185  3.109548
C    -1.203887  -1.661144  3.812227
O    -0.217076  -2.309129  3.321502
H    -3.416291  -0.196805  1.928947
H    -0.767675  0.124762  2.765614
C    -2.479218  0.617757  4.000819
C    -3.042313  1.763227  3.196430
C    -2.212698  2.789256  2.712386
C    -4.409208  1.806148  2.880942
C    -2.725555  3.817843  1.937031
C    -4.939023  2.834606  2.102226
C    -4.096727  3.848233  1.622904
O    -4.522962  4.884137  0.870047
H    -1.805234  0.970614  4.794280
H    -3.322351  0.101558  4.489534
H    -1.151486  2.804939  2.969509
H    -5.090169  1.054037  3.288179
H    -2.089574  4.626553  1.580253
H    -6.008876  2.862590  1.891341
H    -5.487433  4.855094  0.749848
N    -1.789549  -2.046046  4.927309
C    -1.428129  -3.215066  5.730131
H    -2.555999  -1.469163  5.268180
H    -0.453966  -3.590396  5.410017
H    -2.186420  -3.999307  5.609877
H    -1.382935  -2.921423  6.784552
Ca    0.743471  -2.531283  1.441705
