34
Energy: -40373.5732103 eV PBE+vdW (tier 2 basis)
C    -0.688776  -0.204759  2.242443
C    -1.886192  0.014752  3.103375
O    -2.110812  -0.760577  4.093929
H    -0.968158  -0.755841  1.329880
H    0.032787  -0.816944  2.792957
H    -0.225291  0.737890  1.935056
N    -2.765543  1.016812  2.869415
C    -3.368251  1.324501  1.560765
C    -4.152712  0.064174  1.099602
O    -4.261969  -0.956925  1.875473
H    -3.405671  1.158479  3.651471
H    -4.123607  2.094110  1.778903
C    -2.421889  1.935140  0.490503
C    -3.171841  2.572775  -0.659164
C    -4.027898  3.671774  -0.452935
C    -2.999582  2.106813  -1.973412
C    -4.695859  4.271280  -1.509080
C    -3.661332  2.702486  -3.046308
C    -4.516852  3.791308  -2.820129
O    -5.193096  4.429857  -3.795644
H    -1.738523  1.173238  0.096187
H    -1.809600  2.683419  1.016075
H    -4.156180  4.093438  0.546661
H    -2.314174  1.280255  -2.171824
H    -5.345676  5.130402  -1.350165
H    -3.495857  2.334100  -4.059580
H    -4.973267  4.067360  -4.670943
N    -4.717864  0.090608  -0.083681
C    -5.523562  -0.988294  -0.657533
H    -4.522219  0.926044  -0.658206
H    -5.845629  -0.677432  -1.654412
H    -6.408069  -1.174889  -0.036957
H    -4.935779  -1.910514  -0.739880
Ca    -3.817291  -2.004608  3.676404
