34
Energy: -40373.9943322 eV PBE+vdW (tier 2 basis)
C    0.497219  -1.663170  0.288350
C    0.402559  -1.095657  1.664097
O    1.459361  -0.632266  2.239596
H    0.933593  -0.920470  -0.392490
H    -0.472367  -1.987879  -0.101322
H    1.181633  -2.523447  0.307636
N    -0.759331  -1.082434  2.280987
C    -1.064894  -0.701194  3.654395
C    -2.464902  -1.371243  3.874773
O    -3.092011  -1.720974  2.873566
H    -1.622105  -1.477181  1.847760
H    -0.312350  -1.131125  4.332293
C    -1.183107  0.835428  3.860505
C    0.100570  1.605531  4.072898
C    0.531752  2.590429  3.156189
C    0.869223  1.448427  5.246687
C    1.654968  3.392122  3.399268
C    1.998052  2.240991  5.512607
C    2.379138  3.260829  4.608381
O    3.405306  4.101818  4.796202
H    -1.820312  1.011335  4.738977
H    -1.732066  1.250450  3.005282
H    -0.035264  2.754487  2.238308
H    0.570754  0.712361  5.995433
H    1.945002  4.174397  2.696532
H    2.538000  2.111470  6.452765
H    3.771674  4.052950  5.698452
N    -2.924028  -1.511455  5.130621
C    -2.255664  -1.212239  6.390323
H    -3.858888  -1.912721  5.177446
H    -2.708856  -1.823033  7.177345
H    -2.363021  -0.156420  6.681294
H    -1.191623  -1.478111  6.350096
Ca    2.598982  0.793996  3.199749
