34
Energy: -40373.6028468 eV PBE+vdW (tier 2 basis)
C    0.413489  -0.210937  0.494733
C    0.161251  0.464344  1.821967
O    0.924671  1.238137  2.352707
H    -0.441290  -0.137491  -0.192356
H    0.655035  -1.275465  0.636228
H    1.282151  0.267459  0.034236
N    -1.076500  0.192677  2.469881
C    -1.978682  -0.898796  2.190834
C    -3.280296  -0.413610  1.525870
O    -4.182300  -1.262460  1.187577
H    -1.077221  0.569633  3.418221
H    -1.510071  -1.559798  1.443680
C    -2.251366  -1.724390  3.485005
C    -3.081342  -2.979469  3.350718
C    -2.642290  -4.086394  2.591134
C    -4.312908  -3.119733  4.030194
C    -3.388894  -5.271196  2.501548
C    -5.073513  -4.294251  3.957528
C    -4.601525  -5.406534  3.220402
O    -5.356925  -6.511186  3.236928
H    -2.711841  -1.066216  4.235508
H    -1.262438  -2.000690  3.879280
H    -1.687672  -4.039508  2.063887
H    -4.684672  -2.297053  4.643543
H    -2.996612  -6.111886  1.925744
H    -6.003589  -4.393241  4.518753
H    -4.914991  -7.277029  2.825615
N    -3.396709  0.872764  1.305085
C    -4.509584  1.562994  0.662180
H    -2.578550  1.410922  1.615008
H    -4.139559  2.112420  -0.211717
H    -4.953571  2.277718  1.365711
H    -5.262485  0.836654  0.347842
Ca    -4.951570  -3.195220  1.412369
