34
Energy: -40373.97788 eV PBE+vdW (tier 2 basis)
C    -0.056934  -1.796502  0.103434
C    -0.083475  -1.266073  1.495651
O    0.987504  -1.207711  2.186472
H    0.366045  -2.810084  0.105077
H    0.618989  -1.171083  -0.497516
H    -1.042926  -1.815318  -0.371704
N    -1.240496  -0.841222  2.015300
C    -1.378135  -0.157218  3.313810
C    -1.173222  -1.145271  4.487735
O    0.010203  -1.209543  4.985124
H    -2.065498  -0.878889  1.419883
H    -0.509525  0.510954  3.403679
C    -2.632014  0.731794  3.353447
C    -2.849889  1.352282  4.716347
C    -1.848529  2.096360  5.358610
C    -4.097258  1.243102  5.350943
C    -2.069635  2.686484  6.599700
C    -4.335818  1.825816  6.588057
C    -3.317771  2.549713  7.228010
O    -3.615122  3.092343  8.428483
H    -3.525024  0.162814  3.061672
H    -2.494302  1.503937  2.578444
H    -0.883154  2.264374  4.874875
H    -4.918077  0.726381  4.849483
H    -1.282578  3.276027  7.071978
H    -5.310871  1.752958  7.067134
H    -2.871425  3.618400  8.767550
N    -2.099798  -1.956172  4.958894
C    -3.496265  -2.144197  4.563393
H    -1.784844  -2.513900  5.754104
H    -4.142601  -1.438933  5.099593
H    -3.783899  -3.166526  4.827401
H    -3.619473  -2.021769  3.484373
Ca    1.925814  -1.234328  4.086562
