34
Energy: -40373.8197947 eV PBE+vdW (tier 2 basis)
C    0.255798  1.697022  1.546108
C    -0.297008  1.103642  2.795903
O    -0.093900  1.642999  3.923797
H    1.351253  1.738025  1.620849
H    -0.094524  2.734793  1.460652
H    -0.023866  1.144628  0.643173
N    -1.033786  -0.036244  2.705629
C    -1.603187  -0.574009  3.933293
C    -0.574186  -1.417769  4.716402
O    0.022599  -0.835605  5.677231
H    -1.186701  -0.457615  1.793628
H    -1.615038  0.338715  4.526985
C    -3.115691  -0.984839  4.030704
C    -3.460362  -0.379776  5.385753
C    -3.582004  1.021370  5.450466
C    -3.135513  -1.069282  6.560625
C    -3.082042  1.721096  6.549657
C    -2.653403  -0.388220  7.684870
C    -2.502356  0.998243  7.607846
O    -1.622053  1.719209  8.415062
H    -3.280934  -2.066590  3.984532
H    -3.672764  -0.513391  3.209884
H    -3.953325  1.579963  4.589630
H    -3.122361  -2.159979  6.567955
H    -3.121282  2.810956  6.597707
H    -2.298325  -0.945813  8.552516
H    -1.560800  1.350533  9.315883
N    -0.289069  -2.670619  4.401141
C    -0.811967  -3.483287  3.304618
H    0.430790  -3.100898  4.984544
H    -1.534181  -2.917663  2.711074
H    -1.305723  -4.377909  3.703320
H    0.013649  -3.796185  2.653812
Ca    -0.193738  1.321496  6.153750
