34
Energy: -40375.1576513 eV PBE+vdW (tier 2 basis)
C    0.585028  2.945741  2.846650
C    0.127959  1.576123  3.240559
O    0.692881  0.558825  2.762907
H    0.557840  3.030218  1.752327
H    1.635169  3.065612  3.147494
H    -0.006476  3.755108  3.286501
N    -0.898004  1.494151  4.114653
C    -1.553297  0.319827  4.735574
C    -0.541612  -0.566019  5.486329
O    0.222024  -1.358670  4.863870
H    -1.270127  2.389077  4.419045
H    -2.210068  0.771405  5.487203
C    -2.522252  -0.484081  3.814371
C    -1.955663  -1.391311  2.744988
C    -1.619771  -0.907940  1.463212
C    -1.763689  -2.766520  2.984866
C    -1.060240  -1.735007  0.487018
C    -1.210285  -3.617205  2.019103
C    -0.870724  -3.112006  0.744000
O    -0.364181  -3.851532  -0.253620
H    -3.188742  0.256854  3.350629
H    -3.155235  -1.080808  4.486777
H    -1.789566  0.140713  1.218661
H    -2.037035  -3.189685  3.952098
H    -0.819413  -1.349276  -0.503415
H    -1.094091  -4.680120  2.237927
H    -0.380128  -4.804848  -0.052280
N    -0.496115  -0.504287  6.813228
C    -1.269332  0.342450  7.729446
H    0.187926  -1.133538  7.233742
H    -0.913428  0.146929  8.744706
H    -2.338789  0.100295  7.694840
H    -1.112819  1.407003  7.517705
Ca    0.736254  -1.613479  2.743886
