34
Energy: -40373.8499558 eV PBE+vdW (tier 2 basis)
C    -0.308167  1.859463  0.306436
C    -0.356873  0.522685  0.966074
O    0.363021  -0.440632  0.527978
H    0.723470  2.236049  0.311527
H    -0.960725  2.597897  0.783413
H    -0.602891  1.747873  -0.746683
N    -1.162828  0.331895  2.006688
C    -1.343761  -0.936532  2.724496
C    -2.722123  -0.968130  3.477715
O    -2.788283  -1.501162  4.575202
H    -1.686635  1.136078  2.350515
H    -1.392164  -1.728748  1.959190
C    -0.212274  -1.239686  3.731605
C    0.912783  -2.102526  3.231173
C    2.258868  -1.683026  3.296753
C    0.677867  -3.409236  2.734369
C    3.322096  -2.510162  2.893931
C    1.720668  -4.247022  2.322973
C    3.067851  -3.822751  2.434125
O    4.011773  -4.699918  2.065611
H    -0.719798  -1.749813  4.571234
H    0.179396  -0.298204  4.136928
H    2.492746  -0.690858  3.686715
H    -0.341519  -3.798384  2.695651
H    4.349017  -2.152492  2.993181
H    1.518568  -5.262364  1.979481
H    4.910537  -4.404931  2.301884
N    -3.764247  -0.392727  2.834497
C    -5.114734  -0.408397  3.404809
H    -3.675384  -0.152189  1.852813
H    -5.704647  0.387356  2.940443
H    -5.048051  -0.233220  4.482725
H    -5.606158  -1.375691  3.236761
Ca    1.734600  -2.027495  0.652787
