34
Energy: -40375.158768 eV PBE+vdW (tier 2 basis)
C    0.627373  2.944657  2.737307
C    0.163795  1.588340  3.168958
O    0.717694  0.556046  2.710990
H    1.679168  3.066291  3.031732
H    0.042306  3.768956  3.157650
H    0.596833  3.000570  1.641320
N    -0.854666  1.537422  4.054155
C    -1.518124  0.388211  4.712874
C    -0.513714  -0.474786  5.498003
O    0.271148  -1.267296  4.902280
H    -1.214087  2.443862  4.338990
H    -2.176740  0.869165  5.444272
C    -2.485539  -0.444171  3.815436
C    -1.916239  -1.391975  2.783242
C    -1.606329  -0.965359  1.478294
C    -1.696900  -2.753719  3.085901
C    -1.046593  -1.830555  0.530449
C    -1.138490  -3.635592  2.157148
C    -0.825780  -3.187890  0.852926
O    -0.323949  -4.096562  0.003608
H    -3.146502  0.282290  3.322211
H    -3.124414  -1.014441  4.505242
H    -1.791860  0.068968  1.188421
H    -1.956476  -3.136216  4.073727
H    -0.830391  -1.463809  -0.474321
H    -0.994177  -4.688458  2.399664
H    -0.247210  -3.751024  -0.904315
N    -0.496409  -0.394475  6.824450
C    -1.296828  0.456337  7.713272
H    0.185045  -1.011075  7.267453
H    -0.964644  0.272708  8.738735
H    -2.363607  0.207226  7.655073
H    -1.141519  1.519805  7.495052
Ca    0.778824  -1.615451  2.795803
