34
Energy: -40374.2751315 eV PBE+vdW (tier 2 basis)
C    -2.342690  0.626036  -0.918278
C    -2.273095  -0.154189  0.351791
O    -1.759438  -1.322159  0.358979
H    -1.314628  0.820501  -1.258579
H    -2.867200  1.581310  -0.814083
H    -2.826743  0.026060  -1.699325
N    -2.744812  0.398630  1.472692
C    -2.576896  -0.071202  2.862731
C    -3.577008  -1.202760  3.187880
O    -3.511330  -2.288720  2.508011
H    -3.145391  1.330360  1.379999
H    -1.584608  -0.547602  2.925814
C    -2.596560  1.184210  3.767709
C    -2.538090  0.926414  5.255214
C    -1.482966  0.205011  5.840455
C    -3.546616  1.424807  6.095165
C    -1.443905  -0.027085  7.207232
C    -3.518846  1.201745  7.471924
C    -2.466010  0.468485  8.037424
O    -2.356406  0.205666  9.356300
H    -3.503199  1.768752  3.540530
H    -1.742493  1.803012  3.448525
H    -0.654840  -0.158154  5.228031
H    -4.352618  2.034281  5.678840
H    -0.617680  -0.569933  7.663857
H    -4.303242  1.617559  8.105661
H    -3.072144  0.631282  9.858525
N    -4.441063  -1.050037  4.162291
C    -5.407603  -2.052528  4.605544
H    -4.313213  -0.221146  4.761408
H    -6.335093  -1.542786  4.886566
H    -5.016531  -2.586558  5.481862
H    -5.606097  -2.762658  3.799773
Ca    -2.321010  -3.236217  1.045018
