34
Energy: -40373.7018685 eV PBE+vdW (tier 2 basis)
C    -0.410409  -0.202854  -0.152555
C    -0.465578  0.608558  1.096755
O    -0.241760  1.865700  1.061941
H    -1.291044  -0.008649  -0.783587
H    -0.331035  -1.277696  0.033450
H    0.463195  0.132618  -0.728106
N    -0.754547  0.033630  2.284167
C    -1.878638  -0.886726  2.456494
C    -3.183891  -0.037402  2.375415
O    -3.126370  1.202695  2.033039
H    -0.571632  0.632851  3.091599
H    -1.891904  -1.576296  1.599973
C    -1.722376  -1.714253  3.758499
C    -2.769144  -2.787960  3.947821
C    -2.890406  -3.856558  3.037286
C    -3.621504  -2.772589  5.064442
C    -3.831259  -4.858243  3.223156
C    -4.565698  -3.776128  5.268961
C    -4.677478  -4.828716  4.347036
O    -5.559409  -5.840838  4.467952
H    -1.729817  -1.032284  4.622595
H    -0.715735  -2.156878  3.712631
H    -2.219686  -3.928759  2.178155
H    -3.533343  -1.973876  5.803211
H    -3.914493  -5.690400  2.525901
H    -5.202766  -3.751332  6.154079
H    -6.065519  -5.768446  5.295319
N    -4.313632  -0.641752  2.655199
C    -5.649464  -0.051274  2.639960
H    -4.218672  -1.611570  2.998637
H    -6.085280  -0.116694  3.644261
H    -6.283960  -0.611611  1.942710
H    -5.594396  0.993943  2.329334
Ca    -2.052350  2.953790  1.472269
