34
Energy: -40373.9688706 eV PBE+vdW (tier 2 basis)
C    0.574795  -3.288746  2.056360
C    0.099435  -3.021480  3.441831
O    0.887151  -3.163426  4.440154
H    0.981866  -4.307093  1.998015
H    1.402525  -2.602151  1.827218
H    -0.210282  -3.165761  1.303585
N    -1.157680  -2.620807  3.644451
C    -1.663295  -2.241234  4.964999
C    -1.743755  -3.479127  5.879532
O    -0.884405  -3.529789  6.838660
H    -1.795148  -2.519544  2.850585
H    -0.870321  -1.644262  5.439700
C    -2.884185  -1.275005  4.891763
C    -4.068827  -1.677332  4.060791
C    -4.027332  -1.618269  2.653597
C    -5.265247  -2.087969  4.664332
C    -5.108592  -2.017365  1.877748
C    -6.364329  -2.473933  3.903789
C    -6.288495  -2.458203  2.500549
O    -7.304553  -2.820686  1.691389
H    -2.464804  -0.326775  4.520780
H    -3.189469  -1.082669  5.929727
H    -3.165241  -1.176626  2.143304
H    -5.348390  -2.095779  5.752661
H    -5.081544  -1.950776  0.791301
H    -7.292149  -2.767699  4.397128
H    -8.099446  -3.044452  2.205105
N    -2.574927  -4.493131  5.723977
C    -3.525519  -4.828398  4.661046
H    -2.473574  -5.203337  6.451905
H    -3.268220  -5.822328  4.274191
H    -3.497132  -4.091906  3.857351
H    -4.542610  -4.853749  5.066832
Ca    1.218700  -3.408191  6.525643
