37
Energy: -248499.157148 eV PBE+vdW (tier 2 basis)
C    -0.133833  1.564071  0.412052
C    -0.226247  0.942382  1.766372
O    0.681854  1.128385  2.634654
H    -0.094879  2.656560  0.524195
H    -0.971264  1.302664  -0.242949
H    0.806628  1.258148  -0.065107
N    -1.293138  0.184663  2.063038
C    -1.546379  -0.341201  3.411852
C    -0.562643  -1.482801  3.732669
O    0.377559  -1.239545  4.557559
H    -2.031188  0.104207  1.367491
H    -1.270889  0.455209  4.117324
C    -3.051379  -0.620170  3.669242
C    -3.377912  -0.644877  5.128436
C    -3.940361  0.407331  5.829448
C    -3.176152  -1.713929  6.072927
N    -4.081980  0.057473  7.146866
C    -3.630666  -1.234092  7.335534
C    -2.704367  -3.037978  5.992716
C    -3.603443  -2.015015  8.493864
C    -2.677133  -3.818853  7.140536
C    -3.115310  -3.310570  8.379947
H    -3.374369  -1.544145  3.170850
H    -3.603991  0.202995  3.190458
H    -4.282514  1.374007  5.472786
H    -4.537329  0.624220  7.851975
H    -2.397890  -3.472435  5.041547
H    -3.965941  -1.630972  9.446892
H    -2.331006  -4.850096  7.084329
H    -3.088955  -3.951802  9.259483
N    -0.628025  -2.674440  3.153935
C    -1.572363  -3.202407  2.168343
H    0.071639  -3.331784  3.498887
H    -1.046037  -3.941578  1.555727
H    -1.937506  -2.413122  1.507103
H    -2.422311  -3.694732  2.658621
Ba    1.918763  0.631288  4.682048
