37
Energy: -248498.895786 eV PBE+vdW (tier 2 basis)
C    -0.099381  -0.019687  1.006016
C    -1.019835  0.574865  2.023547
O    -0.653938  1.581598  2.707097
H    -0.616091  -0.211380  0.059036
H    0.306119  -0.979762  1.361280
H    0.735042  0.666779  0.837233
N    -2.250303  0.056981  2.246530
C    -2.563466  -1.374170  2.356343
C    -1.711376  -1.966700  3.504608
O    -0.998905  -1.208814  4.252880
H    -2.821607  0.655074  2.842101
H    -3.607549  -1.407855  2.704891
C    -2.539992  -2.184738  1.024214
C    -3.286760  -3.477132  1.130990
C    -2.774518  -4.749215  0.907145
C    -4.687122  -3.641588  1.433567
N    -3.770513  -5.675732  1.068885
C    -4.955043  -5.038127  1.391696
C    -5.746744  -2.753839  1.701785
C    -6.225623  -5.566479  1.632363
C    -7.010867  -3.275703  1.942934
C    -7.245076  -4.665353  1.913882
H    -1.509485  -2.375257  0.699672
H    -3.004626  -1.532483  0.268249
H    -1.777555  -5.051692  0.600992
H    -3.668005  -6.671303  0.911326
H    -5.604882  -1.671738  1.675895
H    -6.415970  -6.638181  1.588422
H    -7.844291  -2.602630  2.138285
H    -8.250793  -5.039137  2.099037
N    -1.783974  -3.266990  3.693500
C    -1.091155  -3.997285  4.752399
H    -2.337248  -3.790450  2.992421
H    -1.339636  -5.057245  4.655868
H    -1.418047  -3.644399  5.737922
H    -0.004353  -3.874895  4.667367
Ba    -0.090929  0.927746  5.017656
