37
Energy: -248500.126825 eV PBE+vdW (tier 2 basis)
C    0.027143  0.922042  0.646734
C    0.053342  0.596074  2.109076
O    1.134031  0.590717  2.745260
H    -0.972682  0.890057  0.201508
H    0.681460  0.217202  0.116551
H    0.453100  1.923541  0.499471
N    -1.125150  0.306065  2.699999
C    -1.399984  -0.020256  4.112666
C    -0.757482  1.000723  5.075311
O    0.380823  0.817543  5.579498
H    -1.940727  0.329460  2.095208
H    -2.484691  0.122986  4.196973
C    -1.196240  -1.510105  4.514671
C    0.167413  -2.118560  4.677927
C    0.748704  -2.428227  5.896197
C    1.061613  -2.631077  3.659598
N    1.977178  -3.037030  5.697198
C    2.181912  -3.210192  4.330593
C    1.032359  -2.664521  2.248932
C    3.260773  -3.789007  3.648248
C    2.094613  -3.242681  1.571402
C    3.198362  -3.792720  2.260745
H    -1.758344  -2.099702  3.774358
H    -1.740845  -1.636342  5.461463
H    0.370948  -2.266905  6.901216
H    2.487178  -3.534797  6.421387
H    0.177421  -2.270193  1.701258
H    4.095872  -4.245444  4.179002
H    2.075944  -3.293516  0.483721
H    4.007510  -4.248677  1.692308
N    -1.464455  2.088645  5.386239
C    -2.795297  2.485641  4.919430
H    -0.998179  2.712473  6.043532
H    -2.832312  2.552126  3.825378
H    -3.010451  3.479206  5.322314
H    -3.572313  1.800398  5.282707
Ba    2.497500  -0.184845  4.666720
