37
Energy: -248499.129955 eV PBE+vdW (tier 2 basis)
C    1.784646  -1.322573  1.303772
C    0.890471  -1.004127  2.467065
O    1.156610  -1.497198  3.610541
H    2.795434  -0.947093  1.513521
H    1.445228  -0.890476  0.356884
H    1.852242  -2.412431  1.191639
N    -0.156463  -0.218630  2.224969
C    -1.235947  0.336063  3.058579
C    -1.006838  1.875127  3.185653
O    0.116598  2.350308  3.027621
H    -0.186447  0.134746  1.271417
H    -2.133249  0.194278  2.435711
C    -1.557419  -0.400930  4.372678
C    -0.850220  -0.128582  5.685248
C    -1.410464  -0.568848  6.873576
C    0.424045  0.450147  6.049502
N    -0.556697  -0.352855  7.928271
C    0.586251  0.249399  7.468206
C    1.489106  1.075976  5.349614
C    1.776857  0.549659  8.150171
C    2.671346  1.368854  6.029685
C    2.828452  1.089566  7.410805
H    -1.502118  -1.478291  4.156161
H    -2.625747  -0.213846  4.552715
H    -2.377323  -1.034310  7.041253
H    -0.776004  -0.541036  8.901323
H    1.373680  1.353494  4.300799
H    1.872125  0.381036  9.223083
H    3.483617  1.859944  5.493981
H    3.761478  1.345708  7.910813
N    -2.115215  2.586955  3.471797
C    -2.114226  4.040486  3.621383
H    -3.013414  2.114952  3.491210
H    -2.640060  4.515628  2.783699
H    -1.076299  4.383646  3.630634
H    -2.604270  4.323251  4.560245
Ba    2.273588  -1.737456  5.736174
