37
Energy: -248499.402434 eV PBE+vdW (tier 2 basis)
C    -0.163674  1.638976  0.879045
C    -0.400133  1.070213  2.241028
O    0.244457  1.507867  3.245411
H    -0.432120  2.704945  0.895270
H    -0.743108  1.140160  0.095449
H    0.904591  1.582193  0.634366
N    -1.312713  0.103385  2.376846
C    -1.823481  -0.439356  3.646845
C    -0.854602  -1.467081  4.275702
O    0.167228  -1.038537  4.907400
H    -1.820693  -0.198718  1.544382
H    -1.833689  0.394884  4.365853
C    -3.269683  -0.912186  3.456440
C    -3.546409  -1.964382  2.413577
C    -2.726295  -2.543678  1.447368
C    -4.862657  -2.512674  2.208417
N    -3.467808  -3.409601  0.679606
C    -4.777584  -3.416490  1.116275
C    -6.102376  -2.317410  2.844924
C    -5.882595  -4.133480  0.647827
C    -7.201065  -3.025457  2.381162
C    -7.091243  -3.922550  1.297243
H    -3.872433  -0.015189  3.234184
H    -3.633490  -1.254918  4.438918
H    -1.666031  -2.429064  1.239567
H    -3.103513  -3.966373  -0.083580
H    -6.208456  -1.626511  3.681574
H    -5.803280  -4.824317  -0.190586
H    -8.170204  -2.889236  2.858448
H    -7.976731  -4.460097  0.961586
N    -1.144467  -2.747915  4.174743
C    -0.374674  -3.844842  4.753017
H    -1.969807  -2.980716  3.600561
H    0.363081  -3.447628  5.453754
H    0.136260  -4.405430  3.959578
H    -1.057046  -4.521767  5.279307
Ba    1.479441  0.974983  5.250497
