37
Energy: -248499.323287 eV PBE+vdW (tier 2 basis)
C    -0.680953  0.153151  -0.266984
C    -0.554243  -0.164264  1.193689
O    0.493446  -0.591262  1.701294
H    -0.030421  1.010263  -0.490297
H    -1.702340  0.395436  -0.580547
H    -0.306036  -0.693898  -0.853155
N    -1.664962  0.035789  1.975301
C    -1.609469  0.033379  3.437423
C    -1.567691  -1.399414  4.021640
O    -2.364103  -1.775861  4.951544
H    -2.522603  0.349003  1.531995
H    -0.637375  0.484488  3.704350
C    -2.752678  0.931290  3.941327
C    -2.940728  1.176032  5.417795
C    -4.131404  1.653523  5.943984
C    -2.025330  1.085209  6.533618
N    -4.019206  1.839445  7.305762
C    -2.748142  1.490044  7.708961
C    -0.719840  0.558595  6.709109
C    -2.224543  1.364198  9.006268
C    -0.212919  0.410347  7.997402
C    -0.956875  0.804262  9.136084
H    -3.702751  0.546457  3.539314
H    -2.590098  1.906369  3.455397
H    -5.055608  1.903273  5.431254
H    -4.722344  2.282452  7.889445
H    -0.104897  0.274965  5.857037
H    -2.787389  1.693014  9.880108
H    0.791620  0.011902  8.134433
H    -0.517691  0.694412  10.126491
N    -0.628808  -2.181273  3.537663
C    -0.413940  -3.568979  3.926672
H    -0.001791  -1.720315  2.827305
H    0.113859  -4.079095  3.115692
H    -1.371924  -4.069120  4.104180
H    0.204512  -3.631739  4.833288
Ba    -3.043339  -1.485079  7.218157
