37
Energy: -248499.021502 eV PBE+vdW (tier 2 basis)
C    -1.224368  0.653274  -0.591051
C    -0.652481  0.327102  0.752013
O    0.248131  1.060086  1.267477
H    -0.434400  1.109592  -1.198464
H    -1.625670  -0.223845  -1.108809
H    -2.031555  1.396339  -0.495253
N    -1.100690  -0.746240  1.438215
C    -2.516204  -1.093089  1.516040
C    -3.204517  -0.053751  2.437175
O    -2.570873  0.983210  2.843957
H    -0.552994  -0.966223  2.271303
H    -2.957880  -0.975733  0.515413
C    -2.711753  -2.573354  1.949197
C    -4.117831  -3.059513  1.798343
C    -4.927273  -3.585345  2.797131
C    -4.871674  -3.139183  0.570388
N    -6.127518  -3.964804  2.258662
C    -6.134100  -3.706905  0.899272
C    -4.601262  -2.818084  -0.773425
C    -7.126998  -3.934989  -0.056459
C    -5.586094  -3.042678  -1.726499
C    -6.835521  -3.589178  -1.370327
H    -2.367745  -2.703752  2.986739
H    -2.032523  -3.160595  1.311047
H    -4.712851  -3.746856  3.849068
H    -6.874959  -4.419172  2.770009
H    -3.623294  -2.445017  -1.083919
H    -8.085811  -4.377562  0.211000
H    -5.388034  -2.813312  -2.772443
H    -7.581802  -3.759501  -2.144579
N    -4.459507  -0.282929  2.759205
C    -5.280285  0.582976  3.602386
H    -4.829787  -1.203449  2.466934
H    -6.314992  0.234707  3.546820
H    -5.232236  1.616928  3.243445
H    -4.946390  0.547334  4.647591
Ba    -0.618945  2.428080  3.124449
