37
Energy: -248499.230722 eV PBE+vdW (tier 2 basis)
C    -0.929710  0.034063  -0.466667
C    -0.764521  0.072090  1.018565
O    0.365466  0.353968  1.533745
H    -1.965960  -0.126139  -0.782017
H    -0.313018  -0.784694  -0.864599
H    -0.556259  0.966207  -0.908831
N    -1.821361  -0.193960  1.787947
C    -1.788256  -0.432636  3.236467
C    -2.415037  -1.840650  3.473704
O    -1.665361  -2.807139  3.473719
H    -2.681899  -0.445907  1.305265
H    -0.736097  -0.586039  3.497055
C    -2.351605  0.747507  4.084663
C    -1.273065  1.614076  4.663314
C    -0.795638  1.541710  5.957938
C    -0.500928  2.639847  4.016048
N    0.239641  2.433052  6.141704
C    0.454449  3.127183  4.977712
C    -0.515522  3.219362  2.727288
C    1.407604  4.106456  4.657077
C    0.433549  4.192514  2.407011
C    1.395535  4.621294  3.356811
H    -2.932346  0.330978  4.918493
H    -3.051994  1.346561  3.485043
H    -1.130407  0.915943  6.779865
H    0.690533  2.618528  7.032160
H    -1.263024  2.918642  1.993990
H    2.115161  4.478232  5.398710
H    0.416186  4.660554  1.423092
H    2.104833  5.402153  3.085023
N    -3.765185  -1.893440  3.587160
C    -4.484302  -3.152855  3.779792
H    -4.295988  -1.033167  3.670986
H    -3.847036  -3.970303  3.430776
H    -5.414084  -3.137203  3.201169
H    -4.720600  -3.315929  4.839475
Ba    2.034856  1.552084  2.755887
