37
Energy: -248498.892211 eV PBE+vdW (tier 2 basis)
C    -1.173645  -0.312502  -0.548224
C    -0.425023  -0.691825  0.689432
O    0.160945  -1.817039  0.763298
H    -0.905467  0.695278  -0.885271
H    -2.259543  -0.319665  -0.366805
H    -0.947771  -1.035210  -1.337162
N    -0.357452  0.139948  1.755130
C    -1.479950  0.916579  2.304454
C    -2.607747  -0.087519  2.689421
O    -2.394005  -1.349714  2.627521
H    0.310286  -0.180595  2.454936
H    -1.100264  1.321781  3.254077
C    -1.917473  2.149757  1.459189
C    -2.760461  3.134083  2.215963
C    -2.313581  4.068771  3.135842
C    -4.190195  3.317194  2.105613
N    -3.375545  4.795407  3.603863
C    -4.540958  4.368138  3.002192
C    -5.207760  2.717185  1.333608
C    -5.856079  4.816341  3.156098
C    -6.514160  3.161730  1.486335
C    -6.834701  4.196470  2.390209
H    -2.458266  1.827229  0.560974
H    -0.986252  2.622518  1.115547
H    -1.304787  4.289351  3.470569
H    -3.306075  5.563652  4.261073
H    -4.978261  1.935816  0.606549
H    -6.104551  5.626576  3.840591
H    -7.307429  2.720436  0.884381
H    -7.869028  4.524738  2.478250
N    -3.749540  0.415185  3.099277
C    -4.930764  -0.339687  3.504141
H    -3.841094  1.443776  3.062864
H    -5.814930  0.202322  3.151466
H    -4.975975  -0.420190  4.598137
H    -4.909728  -1.340795  3.065434
Ba    -1.097611  -3.375020  2.201002
