37
Energy: -248499.317796 eV PBE+vdW (tier 2 basis)
C    -1.691197  0.911959  -0.056420
C    -1.537511  0.953613  1.427390
O    -0.569671  1.583461  1.969532
H    -2.598035  0.387225  -0.372935
H    -1.723461  1.942188  -0.436167
H    -0.812301  0.430222  -0.505782
N    -2.443091  0.325880  2.178016
C    -2.546379  0.464565  3.628087
C    -1.403341  -0.289912  4.330034
O    -0.436571  0.401836  4.795644
H    -3.284151  -0.064172  1.729800
H    -2.332223  1.515954  3.867959
C    -4.013776  0.150825  4.127007
C    -4.957877  -0.355554  3.083798
C    -5.583654  -1.592566  3.054349
C    -5.481220  0.391638  1.960198
N    -6.436776  -1.652711  1.986504
C    -6.400714  -0.462162  1.287963
C    -5.289772  1.700503  1.473510
C    -7.101492  -0.061085  0.147279
C    -5.988810  2.103177  0.343353
C    -6.878583  1.229529  -0.315748
H    -4.396197  1.094156  4.540573
H    -3.968638  -0.546188  4.972518
H    -5.515365  -2.422353  3.750527
H    -7.035931  -2.439952  1.766976
H    -4.630232  2.402190  1.988066
H    -7.804943  -0.725978  -0.352507
H    -5.866515  3.117259  -0.034791
H    -7.413930  1.580007  -1.196644
N    -1.374110  -1.609737  4.447448
C    -2.321206  -2.614690  3.969088
H    -0.565783  -1.960359  4.961886
H    -2.954031  -2.968445  4.793336
H    -2.954560  -2.210678  3.175274
H    -1.754973  -3.464571  3.572351
Ba    0.940015  2.137926  3.768531
