37
Energy: -248499.471007 eV PBE+vdW (tier 2 basis)
C    -3.907095  -1.135022  0.734534
C    -3.244425  -1.417435  2.053080
O    -3.621184  -2.259051  2.860689
H    -3.691402  -0.132528  0.346420
H    -4.988644  -1.269214  0.837927
H    -3.555158  -1.872576  -0.001501
N    -2.122148  -0.646356  2.370862
C    -1.313040  -1.112614  3.481181
C    -2.084610  -0.976745  4.795477
O    -1.824539  -1.756479  5.769059
H    -1.678278  -0.093513  1.643043
H    -1.126815  -2.194404  3.379615
C    0.053226  -0.371479  3.526463
C    1.075486  -1.047706  4.392174
C    1.999922  -1.981964  3.968518
C    1.285558  -0.899169  5.807031
N    2.737219  -2.448665  5.035584
C    2.329582  -1.815311  6.182542
C    0.707071  -0.088004  6.809839
C    2.738239  -1.980382  7.515925
C    1.115436  -0.249392  8.135763
C    2.109680  -1.197511  8.488297
H    -0.092866  0.673931  3.834687
H    0.436539  -0.340613  2.496496
H    2.197023  -2.350242  2.966228
H    3.529553  -3.078480  4.958582
H    -0.045346  0.658105  6.554363
H    3.537646  -2.671022  7.785661
H    0.692416  0.387529  8.912319
H    2.423753  -1.282480  9.527840
N    -2.956969  0.007580  4.907685
C    -3.811730  0.236133  6.067316
H    -3.143964  0.520522  4.046581
H    -4.512795  -0.598600  6.197523
H    -4.378315  1.157157  5.908182
H    -3.207289  0.347900  6.975291
Ba    -0.430269  -2.844748  7.364123
