37
Energy: -248499.877199 eV PBE+vdW (tier 2 basis)
C    0.807818  -0.439185  1.055135
C    0.017173  -0.157904  2.290827
O    0.506804  0.491910  3.253263
H    0.246357  -0.994829  0.296834
H    1.707713  -1.007546  1.326002
H    1.149593  0.512288  0.626387
N    -1.260755  -0.619914  2.356768
C    -2.050603  -0.295697  3.533641
C    -1.787442  -1.254003  4.713579
O    -1.147252  -0.793983  5.703681
H    -1.645565  -1.128164  1.566404
H    -1.558941  0.618383  3.867406
C    -3.520721  0.176430  3.395254
C    -3.764617  0.968826  4.651774
C    -4.508059  0.607581  5.755476
C    -2.981259  2.108316  5.053978
N    -4.214435  1.435066  6.816272
C    -3.261696  2.347238  6.437507
C    -2.068728  2.958054  4.388199
C    -2.589913  3.331616  7.172606
C    -1.415068  3.958311  5.116335
C    -1.653397  4.122733  6.501259
H    -4.241967  -0.642451  3.291828
H    -3.601597  0.801332  2.493184
H    -5.229241  -0.195428  5.870399
H    -4.668922  1.398512  7.722273
H    -1.908226  2.876393  3.311688
H    -2.808127  3.502183  8.226758
H    -0.752109  4.655223  4.602480
H    -1.144863  4.920317  7.041389
N    -2.193568  -2.519075  4.696223
C    -2.862884  -3.258391  3.628974
H    -1.928709  -3.053616  5.524143
H    -3.679907  -3.851460  4.055023
H    -2.157778  -3.937104  3.131582
H    -3.289404  -2.577253  2.888857
Ba    0.225297  1.333287  5.688615
