37
Energy: -248499.520494 eV PBE+vdW (tier 2 basis)
C    0.882327  -0.414726  0.831757
C    0.431000  -0.450012  2.258484
O    1.259432  -0.779978  3.181062
H    1.225320  -1.416699  0.539716
H    0.091889  -0.097551  0.144455
H    1.738293  0.265429  0.731844
N    -0.826204  -0.148251  2.524100
C    -1.531534  -0.226682  3.795430
C    -2.996529  -0.540804  3.359413
O    -3.308937  -0.290011  2.192990
H    -1.515678  -0.005901  1.761636
H    -1.096174  -1.032571  4.401830
C    -1.510808  1.123686  4.567647
C    -0.145894  1.634004  4.900058
C    0.492896  2.703255  4.309434
C    0.762618  1.127408  5.889182
N    1.751699  2.872305  4.849753
C    1.953696  1.934334  5.829458
C    0.696581  0.091216  6.846551
C    3.052452  1.707634  6.673122
C    1.788526  -0.130989  7.693257
C    2.957051  0.664999  7.602910
H    -2.099036  0.998713  5.488117
H    -2.044787  1.867820  3.961053
H    0.133130  3.378655  3.539280
H    2.365287  3.655046  4.647605
H    -0.208218  -0.507830  6.955273
H    3.936478  2.345371  6.640593
H    1.727629  -0.900013  8.463110
H    3.778120  0.492762  8.297976
N    -3.860096  -1.030335  4.268057
C    -3.633619  -1.369468  5.665614
H    -4.805356  -1.143103  3.906128
H    -4.298747  -2.194311  5.942283
H    -3.839863  -0.522978  6.336804
H    -2.604891  -1.714913  5.823819
Ba    2.859511  -0.978047  4.922402
