37
Energy: -248500.284935 eV PBE+vdW (tier 2 basis)
C    0.649469  0.420837  0.997741
C    0.269365  0.407068  2.449330
O    1.134543  0.605525  3.337213
H    1.059331  1.409091  0.748599
H    -0.180348  0.200198  0.318115
H    1.453415  -0.307758  0.832501
N    -1.034078  0.194446  2.734993
C    -1.694097  0.107607  4.049019
C    -1.299473  1.285652  4.962200
O    -0.354545  1.212662  5.791096
H    -1.639465  0.042682  1.933799
H    -2.758286  0.251445  3.822753
C    -1.614935  -1.304185  4.709809
C    -0.272155  -1.954268  4.805635
C    0.358466  -2.669936  3.806548
C    0.636065  -1.946095  5.922091
N    1.619032  -3.044683  4.211527
C    1.834683  -2.609489  5.497055
C    0.569235  -1.449317  7.244908
C    2.974480  -2.691372  6.311711
C    1.699013  -1.539686  8.057399
C    2.896744  -2.133265  7.588003
H    -2.282742  -1.947104  4.119162
H    -2.082077  -1.226507  5.701877
H    -0.006568  -2.952404  2.824254
H    2.248851  -3.634382  3.678183
H    -0.346496  -0.997302  7.624002
H    3.880935  -3.194165  5.974771
H    1.655317  -1.174201  9.082867
H    3.757705  -2.196720  8.251825
N    -2.024600  2.402307  4.869403
C    -3.164584  2.691643  3.994965
H    -1.744923  3.134694  5.520195
H    -2.901678  2.560393  2.938655
H    -3.445088  3.738125  4.143512
H    -4.034231  2.070913  4.247439
Ba    2.082517  0.625262  5.656077
