21
Energy: -109019.3517574  eV PBE+vdW (tier 2 basis)
N    1.583365  0.064644  1.025565
C    0.289796  -0.113600  1.756500
C    0.602296  -0.374838  3.223056
O    1.686835  -0.854149  3.598898
H    1.864085  1.048728  1.110745
H    1.393922  -0.052829  0.025464
H    -0.317084  0.801843  1.697945
C    -0.574305  -1.264797  1.175986
C    -0.232913  -2.711170  1.540806
S    1.365476  -3.439402  1.008426
C    1.243223  -3.477790  -0.805287
H    -0.614558  -1.131609  0.084330
H    -1.605069  -1.094506  1.521812
H    -1.003829  -3.374479  1.124936
H    -0.247712  -2.880982  2.627243
H    0.366920  -4.077679  -1.076833
H    2.141317  -3.990242  -1.169092
H    1.176999  -2.480041  -1.251029
O    -0.388641  -0.092023  4.029150
H    -0.167802  -0.302960  4.963402
Sr    3.361226  -1.562822  2.048035
