21
Energy: -109016.7886988  eV PBE+vdW (tier 2 basis)
N    -0.822145  0.397705  0.384527
C    -0.414287  0.037517  1.707514
C    1.066277  -0.382071  1.729811
O    1.796737  -0.312871  0.776653
H    -1.292802  1.296665  0.328405
H    -0.030496  0.383845  -0.261900
H    -0.523438  0.853997  2.440460
C    -1.304537  -1.162273  2.239023
C    -1.270536  -2.347602  1.271644
S    -2.679856  -3.486254  1.574832
C    -2.189525  -5.072117  0.829452
H    -2.330339  -0.748988  2.327543
H    -0.882855  -1.414363  3.241546
H    -0.334623  -2.915312  1.350158
H    -1.384842  -1.955604  0.250436
H    -1.263586  -5.450832  1.272174
H    -2.075787  -4.903938  -0.247442
H    -3.018550  -5.767850  1.001230
O    1.426345  -0.846597  2.956997
H    2.389761  -1.022923  2.932774
Sr    -2.764179  -2.848583  4.303551
