21
Energy: -109018.4234806  eV PBE+vdW (tier 2 basis)
N    -0.511839  0.206324  0.028492
C    -0.517867  -0.096131  1.459329
C    0.857444  -0.646586  1.830647
O    1.874580  0.055044  1.497540
H    -1.299960  0.810179  -0.211946
H    0.333527  0.714295  -0.233873
H    -0.588003  0.809169  2.103440
C    -1.745208  -0.958098  1.816272
C    -1.965650  -2.173365  0.911825
S    -1.316283  -3.765482  1.537719
C    -2.379155  -4.172246  2.946124
H    -2.623608  -0.307281  1.693809
H    -1.733902  -1.218937  2.883514
H    -1.472579  -2.031273  -0.062066
H    -3.025929  -2.383095  0.719600
H    -3.341804  -4.484458  2.525328
H    -2.498381  -3.318986  3.620002
H    -1.914566  -5.021889  3.459758
O    1.033839  -1.738558  2.499992
H    -0.247916  -3.212950  2.205879
Sr    3.392580  -1.232118  2.648028
