21
Energy: -109019.1117051  eV PBE+vdW (tier 2 basis)
N    -0.596709  -1.529086  0.485517
C    0.152130  -0.755305  1.537504
C    1.582658  -1.260215  1.691251
O    2.022900  -2.176666  0.913048
H    -0.798473  -2.494871  0.770550
H    -0.089422  -1.567044  -0.406932
H    0.218800  0.270087  1.138565
C    -0.637429  -0.716193  2.866489
C    -2.166212  -0.583427  2.711810
S    -2.629744  0.511234  1.313313
C    -4.409924  0.184254  1.185660
H    -0.233253  0.126103  3.440732
H    -0.429932  -1.623309  3.452907
H    -2.587019  -0.182750  3.641889
H    -2.631688  -1.565978  2.544355
H    -4.911101  0.535979  2.093720
H    -4.613749  -0.877886  1.012598
H    -4.762517  0.771851  0.330661
O    2.315867  -0.729792  2.587568
H    -1.523799  -0.958047  0.379158
Sr    4.174616  -2.013940  1.948635
