21
Energy: -109018.6983245  eV PBE+vdW (tier 2 basis)
N    0.098729  0.008963  0.163708
C    0.045132  -0.166791  1.673656
C    1.479653  -0.248924  2.190798
O    1.683262  -0.149882  3.440000
H    0.140869  0.996003  -0.122454
H    -0.740204  -0.415134  -0.266644
H    -0.447836  0.719245  2.095668
C    -0.739910  -1.441505  2.031435
C    -2.205516  -1.413974  1.588785
S    -2.961959  -2.974032  2.140404
C    -4.630028  -2.794165  1.456714
H    -0.693773  -1.542604  3.125167
H    -0.231086  -2.323367  1.607920
H    -2.309774  -1.349958  0.486737
H    -2.728718  -0.550131  2.027571
H    -5.142010  -1.923020  1.880916
H    -5.165924  -3.701133  1.760018
H    -4.612401  -2.746192  0.361522
O    2.432520  -0.465998  1.359684
H    0.952103  -0.457617  -0.191445
Sr    3.988335  -0.547540  3.204899
