21
Energy: -109018.3343974  eV PBE+vdW (tier 2 basis)
N    -0.628051  0.710385  0.550955
C    0.106865  0.073014  1.614591
C    1.570030  0.500420  1.520461
O    2.038922  0.933434  0.418623
H    -1.635986  0.613913  0.658640
H    -0.355854  0.394742  -0.378929
H    -0.263706  0.491146  2.566097
C    -0.006421  -1.497570  1.714512
C    -0.239683  -2.062121  3.117689
S    1.297257  -2.161738  4.118425
C    0.728066  -2.108458  5.836888
H    0.830247  -2.005506  1.211440
H    -0.900908  -1.772683  1.137290
H    -0.589047  -3.102277  3.077075
H    -0.965902  -1.466830  3.687688
H    0.067119  -1.253318  6.006237
H    1.624053  -2.054733  6.466184
H    0.210042  -3.056485  6.022851
O    2.339515  0.440835  2.563570
H    1.713575  -0.861524  3.923114
Sr    3.987306  1.713407  1.361223
