21
Energy: -109019.2712852  eV PBE+vdW (tier 2 basis)
N    -0.469835  -0.471308  -0.057862
C    -0.271188  0.014147  1.358285
C    1.206284  0.377114  1.545298
O    1.965146  0.466868  0.515697
H    -1.387621  -0.207060  -0.432219
H    -0.392432  -1.571958  -0.026571
H    -0.816434  0.964990  1.469410
C    -0.825148  -0.995852  2.378102
C    -0.138055  -2.364864  2.410741
S    -0.198121  -3.341122  0.854668
C    -1.897664  -3.985068  0.873157
H    -1.904733  -1.106875  2.198025
H    -0.737268  -0.529495  3.369691
H    -0.570597  -2.979006  3.211112
H    0.933025  -2.269752  2.639839
H    -2.021731  -4.650288  1.734735
H    -2.008370  -4.569329  -0.047452
H    -2.651039  -3.190008  0.889668
O    1.633616  0.636606  2.714859
H    0.271720  -0.095559  -0.667935
Sr    3.752115  1.257168  1.896464
