21
Energy: -109018.3221067  eV PBE+vdW (tier 2 basis)
N    1.385375  -0.446773  0.297678
C    0.478286  -0.223400  1.468620
C    1.144838  -0.824168  2.694615
O    1.919329  -1.801788  2.609757
H    2.136253  0.253491  0.325156
H    0.860224  -0.216206  -0.553066
H    0.307030  0.847080  1.652514
C    -0.903715  -0.896695  1.235846
C    -0.882239  -2.403246  0.937465
S    -2.505865  -3.203073  0.805871
C    -3.204729  -2.436215  -0.680467
H    -1.385909  -0.356156  0.408301
H    -1.530872  -0.717968  2.119692
H    -0.419772  -2.965956  1.770427
H    -0.329368  -2.615343  -0.015494
H    -4.157699  -2.957702  -0.834366
H    -2.573514  -2.610575  -1.560972
H    -3.417209  -1.370471  -0.544648
O    0.797596  -0.268752  3.821711
H    1.206076  -0.717336  4.595659
Sr    2.259752  -2.885509  0.545289
