21
Energy: -109019.1531076  eV PBE+vdW (tier 2 basis)
N    1.007663  -0.427154  -0.208870
C    0.577069  -0.004276  1.158394
C    1.797145  -0.060643  2.078932
O    2.743164  -0.822243  1.831668
H    0.166652  -0.666878  -0.742830
H    1.387036  0.394285  -0.694267
H    0.191890  1.027838  1.129811
C    -0.559341  -0.899309  1.726598
C    -0.210285  -2.269874  2.314477
S    0.462569  -3.586985  1.230409
C    -0.899126  -3.945770  0.080754
H    -1.330349  -0.988890  0.946399
H    -1.049195  -0.334816  2.535283
H    -1.115004  -2.700807  2.765054
H    0.525824  -2.199092  3.128489
H    -0.574738  -4.795421  -0.531239
H    -1.150050  -3.097636  -0.564518
H    -1.772275  -4.253801  0.667431
O    1.832340  0.645551  3.182580
H    1.079593  1.261656  3.286523
Sr    2.821641  -2.334286  0.018994
