21
Energy: -109018.0088595  eV PBE+vdW (tier 2 basis)
N    0.433605  -0.021843  0.155869
C    0.105983  -0.052761  1.621508
C    1.386389  -0.252033  2.404018
O    2.408062  -0.734751  1.858331
H    0.471628  0.959696  -0.143165
H    -0.383365  -0.392369  -0.343605
H    -0.364227  0.898950  1.921276
C    -0.883663  -1.207083  1.961057
C    -2.294535  -0.993473  1.376740
S    -3.488464  -2.202349  2.002401
C    -3.192008  -3.627241  0.922882
H    -0.972721  -1.283097  3.053414
H    -0.455807  -2.165666  1.623507
H    -2.308548  -1.015694  0.274534
H    -2.683037  -0.012389  1.687452
H    -3.358407  -3.366942  -0.129745
H    -3.941237  -4.372041  1.216979
H    -2.199498  -4.069554  1.071469
O    1.453086  0.012222  3.683111
H    0.637236  0.406116  4.053198
Sr    2.763775  -1.157506  -0.344608
