21
Energy: -109019.2231218  eV PBE+vdW (tier 2 basis)
N    1.522525  -0.330192  -0.189286
C    0.904634  0.186463  1.068013
C    1.827616  -0.171721  2.233665
O    2.589019  -1.147619  2.162775
H    0.795034  -0.366152  -0.911079
H    2.187478  0.371303  -0.535042
H    0.789962  1.281381  1.016316
C    -0.508090  -0.409531  1.312966
C    -0.626037  -1.871301  1.753645
S    -0.127003  -3.091580  0.468480
C    -0.683621  -4.657686  1.208463
H    -1.104401  -0.230558  0.405165
H    -0.990766  0.192965  2.097111
H    -1.686345  -2.080458  1.949207
H    -0.074459  -2.075950  2.681586
H    -0.407331  -5.453793  0.507785
H    -1.775414  -4.627816  1.296606
H    -0.219805  -4.830797  2.184869
O    1.780464  0.506278  3.354451
H    1.196690  1.290560  3.321034
Sr    2.760852  -2.620793  0.325270
