21
Energy: -109018.9444725  eV PBE+vdW (tier 2 basis)
N    0.109545  -0.150815  0.160507
C    0.103195  -0.115945  1.676230
C    1.616044  -0.248974  2.033165
O    1.931253  0.086569  3.241336
H    -0.612553  -0.754655  -0.250155
H    0.035013  0.779739  -0.267612
H    -0.269084  0.862906  1.999960
C    -0.793787  -1.257419  2.202183
C    -0.597825  -1.768667  3.633203
S    -0.784138  -0.638593  5.062862
C    -2.410621  0.138624  4.861661
H    -0.623557  -2.146791  1.571414
H    -1.844630  -0.969671  2.051536
H    0.401448  -2.204178  3.770212
H    -1.315150  -2.582699  3.804260
H    -2.448321  0.794600  3.986573
H    -2.589367  0.723821  5.770799
H    -3.167730  -0.651174  4.798539
O    2.367966  -0.650271  1.152163
H    1.089235  -0.535681  -0.028903
Sr    1.868563  0.609177  5.360668
