21
Energy: -109019.4764085  eV PBE+vdW (tier 2 basis)
N    -0.619452  0.856756  0.124998
C    -0.064602  0.470748  1.489147
C    1.332187  -0.100216  1.241848
O    1.581069  -0.552627  0.070901
H    -0.442635  1.847146  -0.092507
H    -1.631286  0.693353  0.039235
H    -0.016126  1.376567  2.103939
C    -0.934882  -0.590583  2.195309
C    -0.939741  -2.011555  1.607463
S    0.431446  -3.087277  2.215436
C    -0.092203  -4.700547  1.561636
H    -1.972306  -0.221482  2.222739
H    -0.612117  -0.614096  3.245584
H    -0.944051  -2.028328  0.508054
H    -1.850900  -2.520654  1.946922
H    0.655955  -5.431784  1.889385
H    -0.161927  -4.697028  0.468830
H    -1.056085  -4.967209  2.009875
O    2.101985  -0.242598  2.230118
H    -0.098413  0.281370  -0.571309
Sr    3.103086  -2.119956  1.176394
