21
Energy: -109019.4900310  eV PBE+vdW (tier 2 basis)
N    0.472664  -0.241433  -0.071300
C    0.204552  0.118013  1.383535
C    1.571361  0.222036  2.062517
O    2.540897  -0.408788  1.511975
H    1.408533  -0.700952  -0.087379
H    0.526138  0.596037  -0.667317
H    -0.316122  1.082111  1.403350
C    -0.649210  -0.948337  2.098107
C    -0.023120  -2.332319  2.340421
S    1.129028  -2.582584  3.753516
C    0.084080  -2.224166  5.196465
H    -1.575806  -1.090443  1.518012
H    -0.978016  -0.498479  3.044323
H    0.538077  -2.713848  1.475406
H    -0.830067  -3.055435  2.518571
H    -0.798187  -2.873913  5.166737
H    -0.207616  -1.170047  5.249304
H    0.674069  -2.490895  6.081619
O    1.645779  0.785318  3.186691
H    -0.240189  -0.865137  -0.472392
Sr    3.462154  -0.651741  3.747834
