21
Energy: -109018.8501810  eV PBE+vdW (tier 2 basis)
N    0.358460  -1.381146  0.777454
C    -0.675529  -0.370407  0.962424
C    -0.316722  0.785718  1.912097
O    0.799896  0.780564  2.538282
H    1.138360  -1.024100  0.224267
H    0.755501  -1.670963  1.673953
H    -0.868416  0.109011  -0.011901
C    -1.979993  -1.051060  1.419515
C    -2.490414  -2.103135  0.440086
S    -1.362238  -3.563782  0.290387
C    -0.744152  -3.574548  -1.413226
H    -2.774286  -0.298319  1.522824
H    -1.841858  -1.501611  2.414748
H    -2.642030  -1.709085  -0.573172
H    -3.439373  -2.526512  0.791661
H    -0.303865  -4.567009  -1.569837
H    0.027562  -2.803783  -1.468178
H    -1.559415  -3.395373  -2.120547
O    -1.148177  1.752110  2.053396
H    -2.347695  -4.485226  0.070557
Sr    0.321090  2.884798  3.467750
