21
Energy: -109018.6653625  eV PBE+vdW (tier 2 basis)
N    0.541672  0.491919  0.242388
C    0.437601  0.087078  1.707084
C    1.817973  -0.414986  2.142900
O    1.947206  -0.910717  3.303963
H    -0.018935  1.326147  0.026358
H    0.212231  -0.279860  -0.358796
H    0.250047  1.009542  2.277518
C    -0.709545  -0.909236  1.940878
C    -0.590255  -2.213004  1.141347
S    -1.760594  -3.501684  1.661085
C    -3.308516  -2.924893  0.912646
H    -1.662297  -0.402044  1.729946
H    -0.716151  -1.135738  3.015370
H    0.400098  -2.672027  1.291040
H    -0.713754  -2.059370  0.052693
H    -3.664711  -1.985797  1.350895
H    -4.042705  -3.707414  1.138603
H    -3.215827  -2.843974  -0.177437
O    2.814983  -0.283724  1.344718
H    1.537714  0.665353  0.014333
Sr    4.264041  -1.207386  3.043364
