21
Energy: -109018.6533642  eV PBE+vdW (tier 2 basis)
N    0.146701  -0.637096  0.132388
C    -0.198406  0.111434  1.414383
C    1.109757  0.648941  1.997586
O    1.079522  1.268475  3.105654
H    0.157227  -1.654034  0.302894
H    -0.526252  -0.450030  -0.621811
H    -0.792285  0.988771  1.117527
C    -1.029754  -0.769125  2.362957
C    -0.296909  -2.002821  2.904337
S    -1.380490  -3.170169  3.775392
C    -1.780708  -2.252709  5.287148
H    -1.950779  -1.072154  1.841438
H    -1.349224  -0.121940  3.190274
H    0.542778  -1.707247  3.555248
H    0.132116  -2.626767  2.100306
H    -2.373371  -2.949451  5.891974
H    -2.391862  -1.363665  5.094415
H    -0.873864  -1.994494  5.847641
O    2.198972  0.502143  1.331455
H    1.100170  -0.358188  -0.165192
Sr    3.379796  1.758100  3.013154
