21
Energy: -109018.3149604  eV PBE+vdW (tier 2 basis)
N    0.083346  0.866421  0.089475
C    -0.578741  0.199762  1.179456
C    0.465446  -0.497078  2.052131
O    1.672999  -0.584846  1.668361
H    -0.519836  1.534030  -0.386549
H    0.493182  0.233801  -0.595898
H    -0.999177  0.989437  1.828663
C    -1.761956  -0.778138  0.815033
C    -3.044912  -0.587720  1.620222
S    -3.017544  -1.188288  3.358276
C    -3.158841  -2.986666  3.191277
H    -1.440492  -1.830238  0.811586
H    -2.027765  -0.552048  -0.227801
H    -3.903386  -1.105407  1.170338
H    -3.319474  0.472627  1.715085
H    -4.193534  -3.193973  2.896190
H    -2.974542  -3.413351  4.183755
H    -2.452219  -3.377522  2.453537
O    0.135975  -0.979469  3.216938
H    -1.632251  -1.095153  3.517259
Sr    2.490006  -1.248830  3.711034
