21
Energy: -109018.3821973  eV PBE+vdW (tier 2 basis)
N    -0.180243  0.645823  0.529502
C    0.094232  0.202176  1.893460
C    1.612294  -0.040695  1.872008
O    2.071987  -1.082977  1.279970
H    -0.932145  1.328387  0.471137
H    -0.370817  -0.126506  -0.107377
H    -0.067673  1.064158  2.557600
C    -0.722250  -1.025995  2.345668
C    -0.562492  -1.446483  3.805875
S    -1.462799  -0.479605  5.087089
C    -3.220150  -0.709391  4.720478
H    -0.409041  -1.893127  1.742687
H    -1.779215  -0.856162  2.095236
H    0.478336  -1.411660  4.159788
H    -0.925476  -2.468447  3.988987
H    -3.445526  -0.515172  3.668456
H    -3.762794  -0.017765  5.376600
H    -3.457992  -1.742130  5.001080
O    2.401789  0.862251  2.319962
H    -1.301896  0.773445  4.579732
Sr    4.130666  -0.002915  1.019899
