21
Energy: -109018.3877938  eV PBE+vdW (tier 2 basis)
N    0.722090  -0.195121  0.084222
C    0.375424  -0.063790  1.499607
C    1.709345  -0.383086  2.190146
O    2.124117  -1.597891  2.213619
H    0.621982  -1.152146  -0.253039
H    0.181525  0.426708  -0.513584
H    0.174402  1.000877  1.687148
C    -0.796942  -0.956428  1.956871
C    -1.346483  -0.722339  3.367317
S    -2.453192  0.750002  3.445810
C    -3.026574  0.790639  5.163972
H    -0.468189  -2.007112  1.926794
H    -1.608129  -0.870866  1.218729
H    -0.578495  -0.609554  4.143517
H    -2.022232  -1.537731  3.662272
H    -3.739090  -0.035728  5.268921
H    -3.550005  1.745572  5.294771
H    -2.189739  0.693088  5.861782
O    2.459997  0.573757  2.591782
H    -1.515570  1.732936  3.521088
Sr    4.318169  -0.813716  2.359353
