30
Energy: -173736.245873 eV PBE+vdW (tier 2 basis)
C    -0.720821  -0.417191  -0.527572
C    -0.593146  -0.527796  0.955928
O    0.389507  -1.173883  1.435529
H    -0.756994  -1.422773  -0.966866
H    0.187538  0.065412  -0.917358
H    -1.595856  0.158885  -0.846654
N    -1.511306  0.093141  1.720953
C    -1.431031  0.342663  3.168285
C    -2.082318  -0.817279  3.952807
O    -1.467358  -1.925262  4.087505
H    -2.253993  0.574750  1.218969
H    -0.364709  0.310504  3.444552
C    -1.956852  1.749768  3.503334
C    -1.115813  2.837788  2.913172
N    -1.482395  4.159092  2.929061
C    0.153351  2.835461  2.303753
C    -0.463665  4.878334  2.352618
N    0.532729  4.090140  1.969228
H    -1.978769  1.855354  4.601601
H    -3.001917  1.861081  3.158913
H    -2.339852  4.552163  3.308606
H    0.804992  1.987382  2.111278
H    -0.503794  5.957673  2.236586
N    -3.283663  -0.674712  4.481421
C    -3.980645  -1.727018  5.233774
H    -3.766225  0.210848  4.358973
H    -4.353302  -2.499838  4.550019
H    -4.821418  -1.271776  5.763320
H    -3.293774  -2.183724  5.953856
Cd    0.459495  -2.431189  3.204407
