30
Energy: -173736.677297 eV PBE+vdW (tier 2 basis)
C    -0.197684  -0.264303  -0.368565
C    -0.213098  -0.365785  1.121095
O    0.774120  -0.915808  1.701280
H    -1.104612  0.190819  -0.781211
H    -0.048226  -1.260875  -0.803618
H    0.670702  0.344153  -0.662547
N    -1.265237  0.155297  1.781529
C    -1.352224  0.453553  3.216943
C    -1.963909  -0.739854  3.982368
O    -1.266738  -1.783173  4.214617
H    -2.001357  0.542520  1.195454
H    -0.320089  0.546955  3.590897
C    -2.059844  1.821363  3.435036
C    -1.350699  2.971459  2.803986
N    -0.364445  3.712481  3.409321
C    -1.459582  3.520700  1.514482
C    0.058534  4.652475  2.499954
N    -0.582601  4.536828  1.344129
H    -2.166887  1.982156  4.518204
H    -3.077805  1.785797  3.012608
H    -0.069408  3.660662  4.380436
H    -2.149096  3.227125  0.726108
H    0.815419  5.395029  2.736412
N    -3.215092  -0.691609  4.399478
C    -3.885934  -1.781883  5.121197
H    -3.759478  0.144208  4.205125
H    -4.147278  -2.591381  4.427871
H    -4.796098  -1.383406  5.576643
H    -3.222706  -2.174204  5.899055
Cd    0.753350  -2.131301  3.494712
