30
Energy: -173736.951233 eV PBE+vdW (tier 2 basis)
C    1.043563  2.087366  2.512955
C    -0.438529  2.252430  2.653079
O    -0.877133  3.276467  3.239575
H    1.522101  2.275007  3.481905
H    1.412577  2.861904  1.824207
H    1.347280  1.105500  2.134295
N    -1.213046  1.271332  2.123941
C    -2.676402  1.157566  1.963065
C    -3.285061  2.362224  1.207209
O    -3.649166  3.430925  1.786192
H    -0.685701  0.522600  1.683346
H    -2.793164  0.302329  1.287702
C    -3.479205  0.716786  3.237232
C    -3.278431  1.412231  4.550476
N    -2.364119  1.026612  5.476467
C    -3.953636  2.506969  5.172202
C    -2.482160  1.838462  6.595599
N    -3.419980  2.734156  6.444085
H    -3.259392  -0.349968  3.385122
H    -4.546534  0.770033  2.977117
H    -1.716200  0.245727  5.384885
H    -4.965254  2.845339  4.931649
H    -1.848930  1.713704  7.470237
N    -3.465897  2.250698  -0.102753
C    -3.183789  1.117263  -0.992413
H    -3.875556  3.082452  -0.531544
H    -3.795409  0.242818  -0.735676
H    -2.118296  0.857799  -0.983399
H    -3.445728  1.420674  -2.009834
Cd    -2.877804  3.974592  3.748076
