30
Energy: -173736.950390 eV PBE+vdW (tier 2 basis)
C    1.036985  2.089990  2.466605
C    -0.445516  2.253570  2.604538
O    -0.886180  3.285560  3.175297
H    1.515250  2.292150  3.432750
H    1.403978  2.855846  1.767178
H    1.343008  1.103774  2.101473
N    -1.217641  1.262343  2.091058
C    -2.680581  1.141334  1.931001
C    -3.291903  2.329988  1.152416
O    -3.653205  3.410904  1.710102
H    -0.688061  0.508333  1.662286
H    -2.793774  0.273393  1.271490
C    -3.484280  0.721321  3.211692
C    -3.289825  1.442051  4.512186
N    -2.378841  1.075263  5.449038
C    -3.968566  2.547784  5.110028
C    -2.501973  1.908350  6.551786
N    -3.440072  2.800026  6.379425
H    -3.260626  -0.341559  3.379953
H    -4.551128  0.765339  2.947921
H    -1.730015  0.293199  5.375337
H    -4.979555  2.880401  4.859076
H    -1.872005  1.801250  7.431105
N    -3.477417  2.191166  -0.154323
C    -3.198454  1.039420  -1.021217
H    -3.888545  3.013788  -0.599026
H    -3.464802  1.321321  -2.043693
H    -3.808621  0.170262  -0.743621
H    -2.132827  0.780632  -1.011148
Cd    -2.888807  3.990804  3.664286
