30
Energy: -173736.339080 eV PBE+vdW (tier 2 basis)
C    -0.146882  -0.406599  -0.162681
C    -0.172460  -0.403016  1.330210
O    0.830443  -0.866130  1.956767
H    0.701949  0.209953  -0.494152
H    -1.066042  -0.017466  -0.613449
H    0.042830  -1.425765  -0.523318
N    -1.247099  0.126052  1.946022
C    -1.361871  0.483418  3.368205
C    -1.937112  -0.701701  4.176735
O    -1.194204  -1.698246  4.457346
H    -1.987723  0.461097  1.333904
H    -0.338046  0.619768  3.752194
C    -2.100602  1.824024  3.529599
C    -1.353318  2.972378  2.927338
N    -1.894692  4.223981  2.782402
C    -0.036087  3.104975  2.448603
C    -0.925372  5.034577  2.243434
N    0.204630  4.370589  2.035858
H    -2.250326  2.005507  4.607816
H    -3.109443  1.763989  3.080445
H    -2.834232  4.517448  3.037080
H    0.741840  2.347653  2.402377
H    -1.098069  6.084001  2.022441
N    -3.199301  -0.684371  4.564749
C    -3.867844  -1.748440  5.323230
H    -3.763990  0.123928  4.316867
H    -3.117824  -2.432570  5.725335
H    -4.553643  -2.297546  4.665742
H    -4.437220  -1.295319  6.141886
Cd    0.870707  -1.974170  3.823015
