30
Energy: -173736.678455 eV PBE+vdW (tier 2 basis)
C    -1.031610  -0.587883  -0.035146
C    -0.535006  -0.281434  1.339499
O    0.600562  0.282839  1.449039
H    -1.999549  -1.100393  -0.039418
H    -0.286220  -1.193528  -0.566432
H    -1.124348  0.358162  -0.588764
N    -1.321258  -0.599829  2.383392
C    -1.196801  -0.144935  3.778579
C    -0.302068  -1.080050  4.627924
O    0.975696  -0.978200  4.576915
H    -2.202634  -1.055846  2.150363
H    -0.652795  0.813556  3.757418
C    -2.587770  0.185670  4.359374
C    -3.596997  -0.926617  4.376685
N    -4.852715  -0.746837  4.905464
C    -3.612729  -2.252713  3.907657
C    -5.548935  -1.917525  4.743889
N    -4.814917  -2.841022  4.145168
H    -2.982676  1.032182  3.773000
H    -2.436904  0.581002  5.377332
H    -5.213253  0.101843  5.334741
H    -2.819189  -2.811044  3.414680
H    -6.574664  -2.038235  5.080777
N    -0.847644  -1.966004  5.431229
C    -0.102728  -2.896452  6.287461
H    -1.872618  -2.016911  5.442676
H    0.195203  -2.396422  7.218014
H    0.792370  -3.249258  5.766545
H    -0.755543  -3.741642  6.523011
Cd    1.989737  0.184527  3.084924
