30
Energy: -173736.998011 eV PBE+vdW (tier 2 basis)
C    0.326415  -1.110665  0.790563
C    0.161231  -0.049651  1.835859
O    1.097615  0.776251  2.000149
H    0.305064  -0.626826  -0.197233
H    -0.444079  -1.888380  0.819683
H    1.317695  -1.568385  0.895275
N    -1.002417  -0.066144  2.533963
C    -1.580029  0.827840  3.559954
C    -1.774106  2.276047  3.060284
O    -0.814588  3.088595  2.889621
H    -1.631645  -0.810663  2.246926
H    -2.590370  0.427052  3.694816
C    -0.969498  0.718197  5.002750
C    0.503665  0.872982  5.234760
N    1.362269  -0.174864  5.324397
C    1.329530  2.012800  5.471206
C    2.633862  0.302421  5.601336
N    2.649551  1.605563  5.692852
H    -1.271674  -0.265659  5.387846
H    -1.496789  1.457812  5.623898
H    1.113596  -1.158604  5.232028
H    0.984101  2.982510  5.838823
H    3.488531  -0.359106  5.716659
N    -3.010928  2.695621  2.821164
C    -4.287733  1.978094  2.938338
H    -3.057549  3.666642  2.507681
H    -5.082001  2.665298  2.633728
H    -4.321958  1.109438  2.269525
H    -4.486051  1.675757  3.974113
Cd    1.266290  2.560030  3.226038
