30
Energy: -173736.627984 eV PBE+vdW (tier 2 basis)
C    1.144201  0.601799  1.715192
C    -0.163370  1.227085  2.093250
O    -0.254598  2.149670  2.922743
H    1.566679  0.103577  2.599063
H    1.849580  1.397389  1.441599
H    1.073760  -0.123501  0.897599
N    -1.286205  0.750590  1.477928
C    -2.631765  1.273652  1.675880
C    -2.773583  2.784708  1.368693
O    -3.574483  3.552414  2.012543
H    -1.182254  -0.021639  0.826636
H    -3.229997  0.797499  0.880219
C    -3.320783  0.772385  2.992967
C    -3.122621  1.466149  4.310134
N    -1.960947  1.843382  4.853377
C    -4.124723  1.826321  5.310890
C    -2.210593  2.366494  6.124514
N    -3.479896  2.374462  6.423370
H    -2.986953  -0.270204  3.120565
H    -4.403363  0.699473  2.813414
H    -1.080839  1.917285  4.267530
H    -5.094144  1.333551  5.431541
H    -1.405383  2.732340  6.757696
N    -2.155186  3.321882  0.329141
C    -1.339955  2.726527  -0.734828
H    -2.347720  4.319829  0.231719
H    -0.288780  2.647463  -0.432909
H    -1.403679  3.389545  -1.603112
H    -1.723891  1.745143  -1.029226
Cd    -4.630505  3.523732  3.857872
