30
Energy: -173735.637126 eV PBE+vdW (tier 2 basis)
C    -0.021236  0.701364  0.264633
C    -0.030733  0.183697  1.668405
O    1.059168  -0.240403  2.150835
H    0.349173  -0.092440  -0.399359
H    -1.002078  1.039008  -0.087029
H    0.696585  1.529924  0.195333
N    -1.213140  0.188070  2.320219
C    -1.604276  -0.337375  3.643555
C    -1.075776  0.546285  4.796536
O    0.134067  0.505825  5.188294
H    -1.981749  0.582472  1.784871
H    -2.698771  -0.252173  3.649861
C    -1.310698  -1.840481  3.895972
C    -1.943322  -2.794207  2.962138
N    -2.452528  -4.008137  3.375260
C    -2.115406  -2.811380  1.561335
C    -2.909994  -4.662842  2.268753
N    -2.714710  -3.950319  1.160056
H    -1.616530  -2.055134  4.930604
H    -0.190855  -2.034670  3.902784
H    -2.512306  -4.353273  4.329741
H    -1.826418  -2.052770  0.841565
H    -3.380551  -5.640883  2.318165
N    -1.946583  1.353794  5.381259
C    -1.641427  2.272315  6.483011
H    -2.909745  1.335603  5.053757
H    -1.992652  3.276328  6.218850
H    -0.563132  2.287354  6.653813
H    -2.155612  1.938770  7.392891
Cd    1.632238  -0.711322  4.187886
