30
Energy: -173735.943681 eV PBE+vdW (tier 2 basis)
C    1.773001  0.863146  0.485795
C    1.101421  0.136056  1.604291
O    1.779261  -0.685151  2.306654
H    2.179792  0.116641  -0.212401
H    1.109063  1.539439  -0.062649
H    2.631972  1.425441  0.875593
N    -0.208774  0.358055  1.807814
C    -1.180875  -0.397167  2.611262
C    -1.143786  -0.086757  4.115631
O    -0.077456  0.170121  4.763747
H    -0.625074  1.043708  1.182107
H    -2.150399  -0.035521  2.245025
C    -1.150563  -1.942154  2.323244
C    -2.390287  -2.614387  2.801608
N    -2.423182  -3.670392  3.677945
C    -3.749543  -2.351288  2.526039
C    -3.740024  -4.006870  3.875228
N    -4.554838  -3.202751  3.203282
H    -0.254485  -2.405081  2.754285
H    -1.065179  -2.049624  1.230821
H    -1.624887  -4.188573  4.034202
H    -4.159513  -1.600119  1.854070
H    -4.043676  -4.842696  4.499416
N    -2.311121  -0.116918  4.740075
C    -2.506394  0.058444  6.181143
H    -3.148353  -0.246483  4.171873
H    -3.350826  -0.562316  6.496929
H    -2.731226  1.109859  6.404163
H    -1.599530  -0.235246  6.715700
Cd    1.949479  -0.527416  4.449107
