30
Energy: -173737.585246 eV PBE+vdW (tier 2 basis)
C    0.166389  0.419531  0.502563
C    -0.049325  -0.181048  1.859275
O    0.928585  -0.177501  2.660965
H    0.413272  1.483153  0.633298
H    -0.698502  0.336950  -0.164212
H    1.039617  -0.051369  0.033426
N    -1.291955  -0.657887  2.109973
C    -2.032947  -1.149203  3.299220
C    -1.569605  -0.527491  4.637775
O    -0.497873  -0.843034  5.233544
H    -1.905862  -0.561880  1.304266
H    -3.051410  -0.775337  3.125170
C    -2.198783  -2.714098  3.333385
C    -0.975775  -3.428015  3.795737
N    -0.794168  -3.882800  5.090780
C    0.283615  -3.442624  3.238773
C    0.524115  -4.057356  5.323043
N    1.239710  -3.771180  4.219289
H    -2.479821  -3.034907  2.320786
H    -3.057926  -2.947330  3.977596
H    -1.533338  -4.055779  5.769869
H    0.578696  -3.258768  2.209572
H    0.937060  -4.402829  6.266074
N    -2.418509  0.337537  5.182829
C    -2.214680  1.031132  6.456094
H    -3.284246  0.537854  4.688321
H    -1.218331  0.800014  6.837687
H    -2.972521  0.706256  7.179775
H    -2.313354  2.111421  6.297282
Cd    1.396872  -1.491411  4.289846
