30
Energy: -173736.437733 eV PBE+vdW (tier 2 basis)
C    -1.151980  -2.314629  -0.478175
C    -0.728545  -1.587124  0.756114
O    0.407232  -1.853659  1.255757
H    -2.148649  -2.028429  -0.830725
H    -1.120748  -3.395986  -0.291218
H    -0.417777  -2.108676  -1.270507
N    -1.564629  -0.660583  1.265037
C    -1.254690  0.313490  2.321258
C    -1.562421  -0.292009  3.711340
O    -0.690071  -1.002685  4.310713
H    -2.459972  -0.559749  0.791753
H    -0.166634  0.479908  2.302875
C    -1.926235  1.659714  1.994584
C    -1.476635  2.786426  2.865301
N    -1.627018  4.103953  2.510861
C    -0.861480  2.835913  4.130863
C    -1.116884  4.868090  3.529539
N    -0.649926  4.114750  4.517851
H    -3.029479  1.558632  2.012220
H    -1.683073  1.890067  0.944414
H    -2.031921  4.462108  1.649569
H    -0.578378  2.007671  4.774964
H    -1.108594  5.953867  3.497992
N    -2.740411  -0.082040  4.268340
C    -3.161874  -0.622636  5.565884
H    -3.381741  0.555392  3.802983
H    -4.247110  -0.760682  5.549476
H    -2.897345  0.077219  6.369605
H    -2.665310  -1.580292  5.742296
Cd    1.072299  -1.821020  3.321035
