30
Energy: -173736.627605 eV PBE+vdW (tier 2 basis)
C    0.763653  -0.240394  0.735477
C    0.083555  0.683495  1.693567
O    0.760936  1.434674  2.494793
H    1.448411  -0.893433  1.293853
H    0.064475  -0.857933  0.162832
H    1.372316  0.337924  0.022629
N    -1.241261  0.691529  1.730119
C    -2.158904  1.417189  2.602538
C    -3.415896  0.481519  2.633273
O    -3.562157  -0.279578  1.672956
H    -1.784051  -0.004446  1.181081
H    -1.706556  1.553162  3.593636
C    -2.606787  2.802056  1.997184
C    -1.445380  3.723509  1.909725
N    -0.995747  4.497044  2.972124
C    -0.442131  3.792026  0.972000
C    0.240339  4.949302  2.705741
N    0.622213  4.530398  1.473040
H    -3.410243  3.214561  2.622114
H    -3.032102  2.627846  1.000438
H    -1.535233  4.741085  3.801096
H    -0.415103  3.358409  -0.022116
H    0.808452  5.611200  3.352491
N    -4.260666  0.613978  3.660434
C    -5.486418  -0.179943  3.790525
H    -3.989476  1.195274  4.447457
H    -6.271736  0.445323  4.227615
H    -5.316703  -1.053261  4.433265
H    -5.791691  -0.520658  2.797172
Cd    2.129891  2.967142  1.876942
