30
Energy: -173737.701168 eV PBE+vdW (tier 2 basis)
C    -0.350073  2.208661  -0.725010
C    -1.022415  1.341565  0.295333
O    -0.363066  0.393180  0.798555
H    -1.028790  2.894733  -1.242618
H    0.429564  2.796196  -0.217888
H    0.161656  1.572172  -1.457101
N    -2.307465  1.651595  0.598942
C    -3.272446  1.116520  1.584369
C    -2.786134  1.239741  3.046658
O    -1.862984  0.530462  3.547321
H    -2.655252  2.461731  0.093318
H    -4.120256  1.808089  1.500464
C    -3.921597  -0.269444  1.229546
C    -3.068776  -1.464595  0.928233
N    -2.738901  -1.852839  -0.329895
C    -2.478281  -2.463179  1.760042
C    -1.993870  -3.020199  -0.264551
N    -1.817790  -3.410285  0.969867
H    -4.573635  -0.089559  0.363541
H    -4.593105  -0.523700  2.063234
H    -3.015443  -1.382561  -1.190566
H    -2.805594  -2.722429  2.770230
H    -1.617193  -3.517459  -1.154655
N    -3.411003  2.133197  3.801555
C    -3.091533  2.368666  5.214661
H    -4.139845  2.705501  3.384804
H    -2.144822  2.916112  5.304514
H    -3.897892  2.959731  5.656192
H    -3.003335  1.412420  5.740640
Cd    -0.813728  -0.995016  2.404265
