30
Energy: -173737.621545 eV PBE+vdW (tier 2 basis)
C    -0.518887  -1.734012  -0.148323
C    -0.650614  -0.928119  1.107948
O    -1.531235  -1.265508  1.943406
H    0.153160  -1.292604  -0.891785
H    -1.512891  -1.879508  -0.588923
H    -0.144040  -2.732628  0.120764
N    0.201572  0.117787  1.247044
C    0.452048  1.077113  2.345020
C    0.885984  0.395972  3.663420
O    0.099306  -0.246824  4.420908
H    0.847705  0.216716  0.468846
H    1.336049  1.626223  1.997018
C    -0.615106  2.216373  2.520217
C    -2.068209  1.891487  2.694606
N    -2.961904  1.881054  1.673001
C    -2.861472  1.600970  3.845572
C    -4.223794  1.603382  2.175864
N    -4.198140  1.428115  3.470131
H    -0.516014  2.866610  1.639889
H    -0.289591  2.822278  3.378994
H    -2.750523  2.074120  0.695079
H    -2.610969  1.872041  4.874465
H    -5.101328  1.543932  1.537190
N    2.159907  0.530133  4.005622
C    2.732074  -0.040845  5.231386
H    2.782347  1.051588  3.395033
H    3.784606  0.247742  5.285271
H    2.650658  -1.134164  5.213037
H    2.200565  0.342720  6.110073
Cd    -2.001264  -0.542142  3.935225
