30
Energy: -173736.644820 eV PBE+vdW (tier 2 basis)
C    0.623835  -0.722619  1.325168
C    -0.172712  -0.680717  2.587202
O    -0.234617  -1.697453  3.378250
H    0.582134  0.213971  0.760383
H    0.242773  -1.538546  0.694500
H    1.676019  -0.952259  1.548969
N    -0.865940  0.414007  2.870467
C    -1.805098  0.653085  3.964730
C    -2.808935  1.677011  3.338821
O    -2.398686  2.314033  2.360264
H    -0.971180  1.173774  2.166442
H    -2.279104  -0.293554  4.250819
C    -1.147407  1.327260  5.223792
C    0.003520  0.520271  5.713342
N    1.328255  0.835903  5.442578
C    0.040129  -0.759033  6.215682
C    2.108746  -0.223379  5.715609
N    1.340881  -1.238325  6.193937
H    -1.916880  1.411217  6.002371
H    -0.834503  2.349852  4.972140
H    1.668225  1.750349  5.146944
H    -0.783442  -1.375196  6.559985
H    3.192308  -0.229310  5.644721
N    -4.012969  1.850013  3.893517
C    -4.630395  1.145202  5.013295
H    -4.568550  2.575038  3.439526
H    -5.693248  0.994771  4.795815
H    -4.545294  1.723305  5.943958
H    -4.180984  0.156753  5.153978
Cd    1.283120  -2.673426  4.519794
