30
Energy: -173737.586061 eV PBE+vdW (tier 2 basis)
C    0.167697  0.272748  0.522627
C    -0.062339  -0.317149  1.881562
O    0.911541  -0.321269  2.688265
H    -0.697511  0.204554  -0.145321
H    1.031889  -0.218253  0.057219
H    0.436327  1.331552  0.648889
N    -1.311857  -0.777367  2.128836
C    -2.062727  -1.253612  3.317829
C    -1.596023  -0.629365  4.654006
O    -0.532860  -0.958259  5.258040
H    -1.921329  -0.677896  1.320145
H    -3.076156  -0.868635  3.138524
C    -2.247606  -2.816102  3.359904
C    -1.034896  -3.542774  3.829448
N    -0.863281  -3.994465  5.126913
C    0.226102  -3.575307  3.276753
C    0.451994  -4.184409  5.364363
N    1.174759  -3.911642  4.261811
H    -2.529909  -3.138880  2.348267
H    -3.111319  -3.035279  4.002952
H    -1.606776  -4.154752  5.804450
H    0.526820  -3.399267  2.247807
H    0.857576  -4.531347  6.310066
N    -2.432287  0.255161  5.187123
C    -2.221736  0.956622  6.454821
H    -3.293154  0.464498  4.687796
H    -2.326323  2.035336  6.289972
H    -1.221482  0.731893  6.830072
H    -2.972225  0.633126  7.186878
Cd    1.358089  -1.633464  4.324985
