30
Energy: -173736.418124 eV PBE+vdW (tier 2 basis)
C    -1.356490  -2.312701  -0.524808
C    -0.865955  -1.598476  0.692274
O    0.298017  -1.865027  1.122104
H    -1.312805  -3.396060  -0.352383
H    -0.668134  -2.095971  -1.354483
H    -2.371889  -2.025097  -0.817620
N    -1.675878  -0.683351  1.260711
C    -1.310572  0.277520  2.311300
C    -1.534073  -0.349446  3.707943
O    -0.624250  -1.062021  4.246226
H    -2.597456  -0.581289  0.841120
H    -0.226311  0.450938  2.232481
C    -2.007045  1.624143  2.043949
C    -1.514536  2.740473  2.904847
N    -1.692782  4.062236  2.580359
C    -0.827625  2.774728  4.133475
C    -1.129063  4.814114  3.579730
N    -0.601515  4.048893  4.527563
H    -3.106904  1.515857  2.122964
H    -1.825465  1.871680  0.985260
H    -2.148633  4.430644  1.749394
H    -0.503004  1.938706  4.747191
H    -1.128883  5.900274  3.564776
N    -2.679501  -0.155823  4.334407
C    -3.022002  -0.717199  5.646255
H    -3.350536  0.483394  3.915763
H    -2.513513  -1.675724  5.778543
H    -4.105914  -0.858665  5.691952
H    -2.712061  -0.028638  6.443462
Cd    1.082777  -1.855114  3.145244
