25
Energy: -13537.2822703 eV PBE+vdW (tier 2 basis)
N    0.257103  -1.013787  -0.230270
C    -0.082434  -0.352467  1.054375
C    1.155705  0.043717  1.861642
O    1.111459  0.495170  2.977082
H    0.770359  -0.367453  -0.834547
H    -0.607935  -1.244645  -0.725511
H    -0.572803  0.620322  0.871579
C    -1.071306  -1.195049  1.886736
C    -0.829327  -2.710630  1.956574
C    0.528426  -3.196019  2.524244
C    1.408900  -3.931155  1.519242
N    1.955101  -3.012321  0.454538
H    -2.077957  -1.033378  1.474755
H    -1.084883  -0.761891  2.895895
H    -0.993215  -3.163583  0.965205
H    -1.635813  -3.119539  2.578749
H    0.348722  -3.908869  3.340119
H    1.091014  -2.374794  2.994503
H    0.835227  -4.708576  0.998574
H    2.262698  -4.415061  2.009697
H    1.193963  -2.277771  0.075590
H    2.350812  -3.540725  -0.329282
H    2.699240  -2.413946  0.833247
O    2.332490  -0.110206  1.165482
H    3.026640  0.301008  1.720417
