25
Energy: -13537.2227004 eV PBE+vdW (tier 2 basis)
N    1.208520  -0.441114  0.492416
C    0.593848  0.074847  1.718878
C    1.598537  -0.000893  2.855863
O    2.555316  -0.771017  2.914480
H    1.918650  0.211758  0.155088
H    0.502553  -0.484779  -0.243985
H    0.309890  1.139345  1.655408
C    -0.704202  -0.702970  2.095289
C    -0.840374  -2.176857  1.676441
C    0.173402  -3.228727  2.183044
C    1.280360  -3.607916  1.184611
N    2.632656  -3.048039  1.550419
H    -1.542463  -0.163341  1.632814
H    -0.862531  -0.606314  3.178863
H    -0.903734  -2.252860  0.580240
H    -1.836050  -2.478433  2.030693
H    -0.381675  -4.150090  2.400404
H    0.609816  -2.929908  3.148893
H    1.053734  -3.219650  0.186861
H    1.403503  -4.694548  1.111475
H    3.274258  -3.079141  0.751411
H    3.060353  -3.586019  2.312547
H    2.563181  -2.034269  1.892757
O    1.326261  0.871086  3.826951
H    1.981994  0.755547  4.544636
