25
Energy: -13537.1924353 eV PBE+vdW (tier 2 basis)
N    1.171609  0.285081  0.846281
C    -0.097556  -0.164990  1.534373
C    0.166093  -1.671841  1.779523
O    1.196319  -2.126248  1.203382
H    1.014828  0.747476  -0.053324
H    1.620860  -0.728475  0.737629
H    -0.203284  0.377563  2.480483
C    -1.349033  0.032533  0.664811
C    -1.490444  -0.837956  -0.607024
C    -2.173404  -2.227041  -0.461169
C    -1.263300  -3.475088  -0.490311
N    -1.250005  -4.223889  0.818478
H    -1.400325  1.095522  0.382621
H    -2.213179  -0.136427  1.321498
H    -0.521057  -0.960104  -1.118871
H    -2.101120  -0.253691  -1.306853
H    -2.884802  -2.331534  -1.289338
H    -2.787757  -2.236017  0.451624
H    -0.219333  -3.209960  -0.691246
H    -1.587200  -4.179210  -1.264873
H    -2.165770  -4.636481  1.023188
H    -0.976848  -3.515890  1.640872
H    -0.561925  -4.983486  0.800432
O    -0.716427  -2.306757  2.412950
H    1.756061  0.887907  1.430866
