25
Energy: -13537.2548995 eV PBE+vdW (tier 2 basis)
N    1.143279  -1.361847  2.193899
C    0.374698  -0.141163  1.873853
C    1.065080  1.049043  2.554455
O    1.863206  0.918620  3.457778
H    0.697750  -2.167261  1.748568
H    2.086203  -1.296444  1.801417
H    0.369675  0.037861  0.783853
C    -1.098136  -0.275027  2.333936
C    -1.455613  -0.042546  3.812801
C    -1.044714  -1.072916  4.887273
C    0.300326  -0.855864  5.587755
N    1.451197  -1.539883  4.893684
H    -1.455708  -1.266295  2.010476
H    -1.689016  0.441521  1.744933
H    -2.552820  0.012746  3.835398
H    -1.117896  0.958236  4.126948
H    -1.115531  -2.102548  4.498953
H    -1.800172  -1.022529  5.683322
H    0.272249  -1.238846  6.614410
H    0.552665  0.209264  5.631387
H    1.513928  -2.523976  5.172405
H    1.342219  -1.487797  3.791053
H    2.338423  -1.081812  5.125875
O    0.710577  2.276706  2.133709
H    0.105131  2.238758  1.370859
