25
Energy: -13536.5083802 eV PBE+vdW (tier 2 basis)
N    -0.093422  -0.384438  -0.052074
C    0.026021  -0.363050  1.399385
C    1.450618  -0.054078  1.877929
O    2.454585  -0.587202  1.472201
H    0.560817  -1.060857  -0.451327
H    0.138970  0.523107  -0.456250
H    -0.640283  0.433390  1.767628
C    -0.421834  -1.730524  1.950829
C    -0.503407  -1.893888  3.473538
C    -1.588383  -1.038079  4.172962
C    -1.028892  0.240976  4.775849
N    -2.149470  1.067889  5.405937
H    0.274839  -2.488648  1.562060
H    -1.399895  -1.946225  1.496160
H    0.477593  -1.712001  3.941085
H    -0.727622  -2.948158  3.679051
H    -2.058653  -1.629596  4.974467
H    -2.384328  -0.796698  3.448377
H    -0.535038  0.892906  4.046157
H    -0.316164  0.036784  5.584614
H    -1.793397  1.929883  5.839898
H    -2.642942  0.528674  6.130881
H    -2.846795  1.336354  4.698206
O    1.473588  0.926340  2.845080
H    2.417645  1.071722  3.060217
