25
Energy: -13536.5167938 eV PBE+vdW (tier 2 basis)
N    0.885556  -0.747688  -0.269911
C    0.161959  -0.119211  0.830925
C    1.170829  0.810706  1.520555
O    1.817810  0.538801  2.520303
H    0.258082  -1.080172  -0.998651
H    1.458280  -1.528356  0.048932
H    -0.599797  0.535682  0.381848
C    -0.521617  -1.096750  1.807916
C    -1.207826  -0.439743  3.028030
C    -0.392855  -0.629852  4.318370
C    -0.848476  0.292158  5.433028
N    0.118467  0.189253  6.611073
H    0.223825  -1.831974  2.148439
H    -1.259873  -1.660575  1.222452
H    -2.217741  -0.850004  3.165225
H    -1.345534  0.637826  2.838016
H    0.662224  -0.417424  4.080206
H    -0.461323  -1.680179  4.646100
H    -1.843638  0.052880  5.828764
H    -0.834288  1.346104  5.127624
H    -0.135873  0.816049  7.385796
H    0.147982  -0.772267  6.976506
H    1.072514  0.427124  6.304031
O    1.287427  1.982393  0.868210
H    2.016587  2.481346  1.287084
