25
Energy: -13537.364652 eV PBE+vdW (tier 2 basis)
N    -1.502039  0.236498  0.424008
C    -0.810420  0.014930  1.730253
C    0.603646  0.587995  1.593851
O    0.950338  1.230434  0.624208
H    -1.356114  -0.558374  -0.207462
H    -1.065986  1.055554  -0.029780
H    -1.333938  0.651468  2.463048
C    -0.887144  -1.447945  2.179005
C    -2.289265  -2.079744  2.119134
C    -3.423642  -1.353240  2.882616
C    -4.497457  -0.713020  1.999937
N    -4.018274  0.502823  1.271253
H    -0.498030  -1.490397  3.204983
H    -0.195725  -2.049254  1.567652
H    -2.182838  -3.098076  2.514403
H    -2.594263  -2.226506  1.069549
H    -3.018796  -0.603520  3.582785
H    -3.941986  -2.078936  3.523235
H    -5.378269  -0.462375  2.608418
H    -4.827673  -1.435086  1.240549
H    -4.698083  0.758916  0.550612
H    -4.001481  1.296917  1.917764
H    -2.621203  0.371130  0.659097
O    1.356615  0.319705  2.666205
H    2.233028  0.737103  2.537677
