25
Energy: -13537.3957629 eV PBE+vdW (tier 2 basis)
N    -0.068793  -2.891992  1.773494
C    0.085567  -1.485243  1.308770
C    1.469599  -0.993215  1.747439
O    2.125080  -1.557363  2.600022
H    0.242247  -3.528270  1.035239
H    0.625940  -3.006224  2.530114
H    0.031450  -1.461814  0.211630
C    -1.003353  -0.554916  1.878742
C    -2.436424  -0.949161  1.453251
C    -3.392929  -1.320574  2.599000
C    -2.911645  -2.413710  3.549952
N    -2.424982  -3.621156  2.798023
H    -0.776621  0.463015  1.539502
H    -0.904416  -0.529373  2.975436
H    -2.392638  -1.773118  0.722397
H    -2.894883  -0.118624  0.901975
H    -4.363935  -1.614861  2.170700
H    -3.598660  -0.434591  3.217640
H    -3.714127  -2.716064  4.233214
H    -2.062875  -2.080187  4.161718
H    -2.268445  -4.411707  3.431402
H    -3.111205  -3.923686  2.098355
H    -1.415721  -3.345606  2.286570
O    1.831966  0.129694  1.109204
H    2.703803  0.408747  1.456210
