25
Energy: -13537.3152939 eV PBE+vdW (tier 2 basis)
N    -0.376679  -3.069636  1.860605
C    -0.258575  -1.604331  1.609041
C    1.219269  -1.327164  1.290381
O    2.029601  -2.217205  1.139395
H    0.305010  -3.558041  1.260944
H    -0.089912  -3.274785  2.824256
H    -0.813826  -1.390292  0.680133
C    -0.846931  -0.775876  2.759766
C    -2.365754  -0.536846  2.749822
C    -3.343810  -1.705831  2.985989
C    -3.755335  -2.548333  1.767954
N    -2.895099  -3.754073  1.565299
H    -0.363458  0.208386  2.723667
H    -0.531505  -1.224404  3.717629
H    -2.638838  -0.025158  1.812256
H    -2.551892  0.202432  3.541467
H    -4.269119  -1.264987  3.380674
H    -2.982251  -2.363839  3.794802
H    -3.696054  -1.946955  0.850409
H    -4.802040  -2.864655  1.872444
H    -3.107184  -4.189939  0.663778
H    -1.499133  -3.438390  1.695385
H    -3.124947  -4.458247  2.272685
O    1.465921  -0.017404  1.159134
H    2.407540  0.092572  0.915084
