25
Energy: -13536.5057518 eV PBE+vdW (tier 2 basis)
N    -0.324156  0.078553  0.088555
C    -0.313792  -0.102213  1.533679
C    1.073403  0.187637  2.101043
O    1.270191  0.773328  3.149417
H    0.332843  -0.554000  -0.368945
H    -1.250171  -0.099780  -0.299677
H    -0.948625  0.689347  1.962343
C    -0.823637  -1.489417  2.029695
C    -0.686202  -1.818018  3.528181
C    -1.178810  -0.754125  4.527891
C    -2.640978  -0.382574  4.356767
N    -3.001010  0.724072  5.344716
H    -0.286191  -2.266176  1.466633
H    -1.875764  -1.570057  1.710045
H    0.371184  -1.996783  3.768348
H    -1.199537  -2.771928  3.722898
H    -0.551237  0.146388  4.420572
H    -1.021143  -1.140638  5.548088
H    -3.327450  -1.213974  4.561537
H    -2.868121  0.022669  3.363189
H    -2.401044  1.547225  5.191444
H    -2.843723  0.412158  6.313042
H    -3.981800  1.022795  5.262430
O    2.057797  -0.329904  1.338767
H    2.909121  -0.106559  1.765172
