25
Energy: -13537.2002198 eV PBE+vdW (tier 2 basis)
N    0.729016  -0.987953  0.049434
C    0.305381  -0.555281  1.383941
C    1.547593  -0.581104  2.274787
O    1.690831  -1.204475  3.327390
H    1.427121  -0.355587  -0.341680
H    -0.068279  -0.987312  -0.586970
H    -0.060619  0.494814  1.424901
C    -0.792399  -1.484871  1.905982
C    -1.458950  -1.009099  3.208038
C    -2.039349  -2.134410  4.079973
C    -1.048278  -3.221649  4.489140
N    0.218626  -2.630714  5.067443
H    -0.351886  -2.488091  2.003018
H    -1.555885  -1.579804  1.120939
H    -2.271745  -0.308473  2.973801
H    -0.748766  -0.415895  3.806099
H    -2.857985  -2.646000  3.552207
H    -2.493597  -1.696844  4.982342
H    -0.727082  -3.834928  3.639211
H    -1.479250  -3.888908  5.244568
H    0.850846  -3.365071  5.405243
H    0.748741  -2.058106  4.331990
H    0.011527  -2.014054  5.862098
O    2.523373  0.179767  1.782011
H    3.304543  0.113470  2.368308
