25
Energy: -13537.0502975 eV PBE+vdW (tier 2 basis)
N    0.451487  -0.038768  0.221788
C    0.436830  0.045731  1.680299
C    1.868680  -0.028346  2.207946
O    2.801260  -0.547413  1.608063
H    -0.506226  -0.068506  -0.130727
H    0.875531  0.799388  -0.179893
H    0.026580  1.006627  2.051319
C    -0.434475  -1.079520  2.320061
C    -0.574238  -2.423270  1.583607
C    0.675276  -3.288861  1.300902
C    1.235451  -3.187023  -0.128835
N    2.541467  -2.438265  -0.202542
H    -1.449606  -0.673557  2.433755
H    -0.076691  -1.261193  3.344917
H    -1.123048  -2.278661  0.640944
H    -1.254537  -3.016258  2.210724
H    0.395223  -4.338360  1.456009
H    1.467696  -3.097611  2.041035
H    0.542017  -2.647271  -0.781253
H    1.416559  -4.177227  -0.562250
H    2.765945  -2.177033  -1.168133
H    2.520547  -1.548288  0.402606
H    3.316546  -3.011196  0.150218
O    2.102056  0.487497  3.417649
H    1.306901  0.925329  3.775376
