25
Energy: -13537.3301658 eV PBE+vdW (tier 2 basis)
N    0.198505  -0.496948  -0.185045
C    -0.073613  -0.375007  1.254309
C    1.288550  -0.501238  1.975293
O    2.323291  -0.403925  1.179174
H    0.018889  -1.437567  -0.537451
H    1.891380  -0.333226  0.260689
H    -0.374243  0.671514  1.430384
C    -1.162036  -1.310252  1.843131
C    -2.222509  -0.615018  2.720558
C    -1.754728  0.167251  3.960341
C    -1.405232  -0.630385  5.213200
N    -0.210084  -1.541432  5.020345
H    -0.682310  -2.152866  2.363791
H    -1.696406  -1.766087  0.998401
H    -2.973011  -1.363057  3.021653
H    -2.765738  0.093896  2.077574
H    -2.573696  0.834200  4.267279
H    -0.916111  0.837093  3.715523
H    -2.244696  -1.250782  5.551280
H    -1.143769  0.054459  6.028004
H    -0.497369  -2.471005  4.699867
H    0.308621  -1.672977  5.894623
H    0.464624  -1.136318  4.262493
O    1.421182  -0.648261  3.194206
H    -0.341491  0.158939  -0.745621
