25
Energy: -13537.1605863 eV PBE+vdW (tier 2 basis)
N    0.638941  0.206032  0.084567
C    -0.400007  0.023164  1.068327
C    -0.233027  0.645460  2.456770
O    -1.139315  0.646060  3.299100
H    1.528297  -0.196201  0.378920
H    0.796558  1.185148  -0.147559
H    -1.302301  0.530831  0.681864
C    -0.728334  -1.487363  1.242317
C    -1.869816  -1.982658  0.350869
C    -3.267685  -1.422381  0.667254
C    -3.765261  -1.644131  2.101899
N    -3.564773  -0.430359  2.986137
H    -0.939611  -1.716474  2.297915
H    0.184543  -2.048276  0.999896
H    -1.911627  -3.080230  0.419606
H    -1.634029  -1.754925  -0.698631
H    -3.987300  -1.902273  -0.009317
H    -3.330768  -0.348841  0.420075
H    -3.245331  -2.476375  2.592724
H    -4.839085  -1.862314  2.124628
H    -2.545025  -0.067931  3.038501
H    -3.865075  -0.625341  3.948735
H    -4.137702  0.352355  2.649365
O    0.951178  1.193640  2.695939
H    0.950322  1.561391  3.604195
