25
Energy: -13537.5559296 eV PBE+vdW (tier 2 basis)
N    0.872319  -2.026484  0.695688
C    0.248613  -0.870522  1.370851
C    1.296689  -0.219501  2.276060
O    2.319860  -0.758055  2.657551
H    1.690370  -1.731903  0.157716
H    0.214463  -2.439026  0.031066
H    -0.069104  -0.092262  0.659300
C    -1.010435  -1.301572  2.173295
C    -0.992449  -2.674821  2.878055
C    0.187409  -2.996622  3.807654
C    -0.131298  -4.072322  4.837697
N    1.373255  -3.442427  2.959732
H    -1.863968  -1.302584  1.481103
H    -1.226463  -0.510027  2.903718
H    -1.093200  -3.491228  2.143972
H    -1.908933  -2.728213  3.481544
H    -0.909594  -3.716158  5.522831
H    0.525681  -2.085448  4.319183
H    -0.505872  -4.988526  4.357617
H    0.748251  -4.327646  5.443575
H    1.295388  -2.971032  1.963629
H    1.378381  -4.463030  2.858980
H    2.263832  -3.146174  3.371650
O    0.931857  1.029781  2.606656
H    1.621577  1.403823  3.191636
