25
Energy: -13536.6414212 eV PBE+vdW (tier 2 basis)
N    0.436622  -0.271091  0.274649
C    -0.375872  -0.312403  1.485673
C    0.547773  -0.348851  2.700648
O    1.757055  -0.255179  2.653711
H    1.348958  0.135109  0.487790
H    -0.003715  0.298407  -0.445318
H    -0.977167  0.604364  1.641925
C    -1.389601  -1.488435  1.448647
C    -0.810515  -2.802638  0.905975
C    0.347129  -3.383466  1.728542
C    1.001129  -4.596535  1.090929
N    -0.007127  -5.731923  0.915594
H    -2.219131  -1.194554  0.790312
H    -1.822929  -1.626819  2.448420
H    -0.453659  -2.620941  -0.119285
H    -1.653456  -3.516722  0.847679
H    0.033528  -3.614673  2.760201
H    1.152902  -2.640021  1.812884
H    1.820017  -5.007081  1.693150
H    1.375971  -4.374907  0.083565
H    -0.814248  -5.399975  0.368312
H    -0.364080  -6.049547  1.826709
H    0.400832  -6.542149  0.432501
O    -0.144740  -0.471240  3.860275
H    0.507613  -0.405478  4.585321
