25
Energy: -13536.6081284 eV PBE+vdW (tier 2 basis)
N    -0.942742  0.993120  0.410857
C    -0.344425  0.541008  1.654346
C    1.162521  0.817647  1.767378
O    1.899325  1.015451  0.830807
H    -0.364133  0.697121  -0.379275
H    -0.962355  2.012212  0.372315
H    -0.826336  1.081734  2.484488
C    -0.568630  -0.980954  1.834574
C    -2.034246  -1.410766  1.681782
C    -3.030612  -0.754179  2.650274
C    -2.705435  -0.908907  4.127660
N    -2.634398  -2.387233  4.505419
H    -0.140448  -1.284682  2.804540
H    0.023599  -1.512647  1.074205
H    -2.095342  -2.513197  1.739660
H    -2.367334  -1.161603  0.666397
H    -4.047182  -1.131733  2.455263
H    -3.081189  0.326503  2.452229
H    -3.468689  -0.464379  4.776843
H    -1.728000  -0.489484  4.395917
H    -2.377014  -2.524322  5.491125
H    -3.538862  -2.850875  4.344133
H    -1.936638  -2.867319  3.919289
O    1.574122  0.785973  3.066571
H    2.538542  0.950386  3.062662
