25
Energy: -13537.3993189 eV PBE+vdW (tier 2 basis)
N    1.297148  -0.782054  0.388858
C    0.354444  -0.191381  1.367619
C    1.169267  0.697557  2.303813
O    2.376586  0.620796  2.432412
H    1.819298  -0.040124  -0.084449
H    0.767557  -1.273135  -0.334664
H    -0.391235  0.443856  0.864831
C    -0.413546  -1.271763  2.172150
C    0.351468  -1.978832  3.315042
C    0.943129  -3.379465  3.068550
C    1.888176  -3.585139  1.885370
N    2.888404  -2.471146  1.734790
H    -0.827310  -2.002172  1.458615
H    -1.284246  -0.762630  2.603606
H    -0.342665  -2.097641  4.157081
H    1.134911  -1.312164  3.708223
H    0.128129  -4.106307  2.935566
H    1.461536  -3.684553  3.990338
H    1.342213  -3.615513  0.932907
H    2.424504  -4.535062  1.989473
H    2.350656  -1.666845  1.164212
H    3.209635  -2.095037  2.632865
H    3.713349  -2.769288  1.206107
O    0.379766  1.542458  2.985496
H    0.945828  2.068584  3.586189
