25
Energy: -13536.6587664 eV PBE+vdW (tier 2 basis)
N    0.102060  0.023513  -0.089307
C    0.080535  -0.054640  1.378514
C    1.489073  -0.246072  1.942504
O    1.777559  -0.971237  2.870421
H    0.901185  0.575381  -0.400994
H    -0.731968  0.508387  -0.421935
H    -0.263813  0.888957  1.850390
C    -0.865452  -1.170198  1.848832
C    -0.463873  -2.555271  1.331565
C    -1.535802  -3.621610  1.575069
C    -1.086403  -5.022990  1.191850
N    -0.684360  -5.059157  -0.280353
H    -1.878267  -0.919268  1.495725
H    -0.901145  -1.174938  2.946661
H    0.475808  -2.856679  1.820883
H    -0.252151  -2.428790  0.252616
H    -2.471757  -3.370280  1.048436
H    -1.797029  -3.663384  2.643302
H    -1.868895  -5.780240  1.318262
H    -0.194404  -5.334807  1.749818
H    -0.278286  -5.962792  -0.552970
H    -1.493897  -4.875122  -0.887869
H    0.007673  -4.316286  -0.463213
O    2.390546  0.539102  1.301308
H    3.251985  0.406946  1.744289
