25
Energy: -13536.5044992 eV PBE+vdW (tier 2 basis)
N    1.587497  -0.524952  1.171070
C    0.862065  -0.729718  2.416357
C    1.241329  -1.952570  3.265679
O    1.008381  -2.055764  4.453102
H    1.584644  -1.373142  0.602870
H    2.566502  -0.307130  1.355329
H    1.052568  0.138397  3.065529
C    -0.658469  -0.773476  2.120205
C    -1.549072  -0.607441  3.355505
C    -3.052895  -0.770320  3.076221
C    -3.594787  0.315144  2.159355
N    -5.099835  0.148186  1.963303
H    -0.896030  -1.720170  1.604908
H    -0.821619  0.033354  1.389580
H    -1.368603  0.376940  3.816689
H    -1.270231  -1.344742  4.119765
H    -3.596342  -0.741307  4.035083
H    -3.238803  -1.761060  2.627628
H    -3.156445  0.285933  1.154854
H    -3.452572  1.320654  2.575344
H    -5.494507  0.874258  1.350404
H    -5.313529  -0.768188  1.545923
H    -5.592565  0.193463  2.866088
O    1.833340  -2.931314  2.535357
H    2.020920  -3.666106  3.152671
