25
Energy: -13536.5487437 eV PBE+vdW (tier 2 basis)
N    -0.645366  0.398260  0.139302
C    -0.777483  0.181197  1.570882
C    0.461830  0.638299  2.338313
O    0.617571  0.480600  3.539646
H    -0.279030  1.323259  -0.077409
H    -1.545410  0.298441  -0.328128
H    -1.590553  0.773813  2.048494
C    -1.118829  -1.313261  1.796260
C    -1.361801  -1.758247  3.251850
C    -0.128656  -2.393406  3.933296
C    0.065256  -1.970805  5.377081
N    -1.159402  -2.332064  6.217160
H    -0.333406  -1.923228  1.327529
H    -2.028469  -1.498028  1.208360
H    -2.193737  -2.478126  3.262122
H    -1.699630  -0.876599  3.824996
H    0.791157  -2.083695  3.421605
H    -0.161202  -3.491564  3.852954
H    0.176458  -0.881738  5.445683
H    0.919543  -2.460679  5.858942
H    -1.072153  -2.000514  7.186020
H    -2.001616  -1.903542  5.807503
H    -1.308641  -3.349597  6.239899
O    1.354379  1.289185  1.571059
H    2.077735  1.588044  2.157864
