18
Energy: -99118.4978809 eV PBE+vdW (tier 2 basis)
N    0.483835  -0.275643  0.115333
C    -0.044643  0.148086  1.467398
C    0.442510  -0.950667  2.415488
O    0.812357  -2.030281  1.986447
H    1.322912  0.249101  -0.161910
H    0.745745  -1.283733  0.236457
H    0.387407  1.120256  1.731690
C    -1.600875  0.251493  1.478636
O    -2.183768  -1.017286  1.300297
C    -2.112118  1.265276  0.456268
H    -1.828808  0.629910  2.491070
H    -0.222629  -0.169500  -0.624066
H    -3.194311  1.392369  0.577570
H    -1.948805  0.940653  -0.584305
H    -1.648205  2.251193  0.591932
O    0.366988  -0.580631  3.686230
H    0.720118  -1.290464  4.263636
Sr    -3.455709  -2.676132  1.406830
