18
Energy: -99117.6908702 eV PBE+vdW (tier 2 basis)
N    0.402651  -0.752562  0.040003
C    -0.084949  -0.208758  1.269947
C    0.929523  0.334280  2.268384
O    0.612641  0.480771  3.492736
H    0.558483  -0.058658  -0.686549
H    1.226843  -1.343338  0.125243
H    -0.710604  0.672614  1.035996
C    -1.029950  -1.232511  1.998450
O    -1.545508  -0.623237  3.233600
C    -0.370635  -2.567545  2.303040
H    -1.871594  -1.375772  1.305870
H    -0.405022  0.047902  3.570946
H    0.482936  -2.467110  2.988298
H    -0.025402  -3.043847  1.376976
H    -1.090989  -3.260786  2.758476
O    2.111009  0.639022  1.842215
H    2.682952  1.001710  2.556591
Sr    -3.312017  -0.791633  4.483187
