18
Energy: -99118.9293385 eV PBE+vdW (tier 2 basis)
N    0.726304  1.107601  1.727835
C    -0.346959  0.083172  2.050864
C    0.175323  -1.331155  1.902882
O    -0.499030  -2.318271  2.188349
H    1.514087  1.086706  2.392760
H    1.117676  0.956846  0.785481
H    -0.635899  0.245498  3.097598
C    -1.656473  0.325239  1.167574
O    -2.596872  -0.582395  1.580948
C    -1.373640  0.253664  -0.333492
H    -1.966206  1.360170  1.429984
H    0.320820  2.056437  1.749462
H    -2.314143  0.428651  -0.869471
H    -0.994028  -0.733668  -0.634545
H    -0.674258  1.026557  -0.689179
O    1.402996  -1.390435  1.399669
H    1.702337  -2.321372  1.303662
Sr    -3.005035  -2.560245  2.259618
