18
Energy: -99118.5214842 eV PBE+vdW (tier 2 basis)
N    0.983774  -0.931022  0.419236
C    -0.046279  -0.471653  1.433821
C    0.770970  -0.087975  2.662753
O    1.949402  -0.324677  2.761521
H    0.687932  -1.789289  -0.066565
H    1.867789  -1.113126  0.943638
H    -0.563539  0.404781  1.024992
C    -1.130344  -1.579541  1.717218
O    -2.046164  -1.011536  2.584805
C    -0.537352  -2.879142  2.259127
H    -1.606073  -1.775280  0.734275
H    1.184741  -0.216302  -0.293325
H    -0.026418  -2.726012  3.220251
H    0.171705  -3.360389  1.568348
H    -1.350780  -3.597942  2.412530
O    0.061019  0.548594  3.652179
H    0.734221  0.807689  4.320935
Sr    -2.715603  0.104823  4.221259
