18
Energy: -99118.6365966 eV PBE+vdW (tier 2 basis)
N    -0.561847  -0.836392  0.349048
C    -0.251757  -0.086925  1.535080
C    1.226646  -0.024862  1.939514
O    1.622190  0.165367  3.117052
H    -0.007439  -1.678035  0.210529
H    -0.555905  -0.285319  -0.505254
H    -0.516907  0.971268  1.355781
C    -1.182205  -0.584363  2.681946
O    -1.162709  0.379522  3.836485
C    -0.893068  -1.976852  3.205728
H    -2.194225  -0.544864  2.263455
H    -2.031799  0.813204  3.883071
H    0.122083  -2.084788  3.626903
H    -0.965414  -2.704978  2.386870
H    -1.631385  -2.274099  3.960132
O    2.062299  -0.182761  0.950397
H    2.996377  -0.099436  1.244201
Sr    0.765064  0.486309  5.233060
