18
Energy: -99118.9403191 eV PBE+vdW (tier 2 basis)
N    -0.013192  -0.075411  -0.064590
C    -0.019055  0.029231  1.447232
C    1.435102  0.097660  1.925171
O    2.297145  -0.658962  1.353473
H    0.704565  -0.761931  -0.353250
H    0.212627  0.825862  -0.508893
H    -0.533816  0.956809  1.719904
C    -0.751609  -1.205516  2.084392
O    -0.236597  -1.242574  3.411973
C    -0.541062  -2.531514  1.355360
H    -1.825835  -0.954416  2.095056
H    -0.895008  -1.645143  4.001659
H    -1.029381  -3.324870  1.935358
H    0.521376  -2.792381  1.263905
H    -1.013916  -2.563909  0.361762
O    1.725640  0.849784  2.900923
H    -0.925852  -0.382099  -0.431230
Sr    3.781868  -0.230617  3.201793
