18
Energy: -99118.2867455 eV PBE+vdW (tier 2 basis)
N    0.809649  -0.220243  0.179511
C    0.076679  -0.001258  1.412922
C    1.192600  0.293992  2.425710
O    1.662816  1.447828  2.598432
H    0.447678  0.295920  -0.617078
H    0.967332  -1.194928  -0.064059
H    -0.532141  0.909237  1.330578
C    -0.858827  -1.127645  1.893260
O    0.104949  -2.283645  2.207148
C    -1.887606  -1.602306  0.905345
H    -1.309432  -0.851366  2.858312
H    -0.330662  -3.000803  2.709586
H    -2.475524  -2.435114  1.312357
H    -1.440611  -1.909862  -0.046758
H    -2.592039  -0.781480  0.709629
O    1.753474  -0.723307  3.055098
H    0.938041  -1.795804  2.729007
Sr    3.553511  0.790924  3.789376
