18
Energy: -99117.4395131 eV PBE+vdW (tier 2 basis)
N    0.296565  -0.593958  0.220421
C    -0.176391  -0.177440  1.531892
C    1.042951  0.388922  2.211416
O    1.986917  -0.305357  2.772199
H    0.507450  0.161078  -0.429268
H    1.014173  -1.315522  0.193095
H    -0.874438  0.657254  1.391682
C    -0.959200  -1.311748  2.258416
O    -1.743055  -0.788107  3.303505
C    -0.107351  -2.487826  2.750744
H    -1.610955  -1.684761  1.447700
H    1.734757  -1.253379  2.867899
H    0.429380  -2.246301  3.684980
H    0.590257  -2.866219  1.986436
H    -0.751485  -3.340160  2.999591
O    1.241481  1.664620  2.119912
H    2.131489  1.936443  2.443500
Sr    -3.306548  -0.467541  4.648883
