18
Energy: -99118.5201121 eV PBE+vdW (tier 2 basis)
N    0.945505  -0.941556  0.283405
C    0.071733  -0.345631  1.366738
C    1.082862  0.089619  2.435248
O    2.247646  -0.249057  2.366302
H    1.893400  -1.036804  0.735272
H    1.037633  -0.328634  -0.536314
H    -0.458799  0.520819  0.955466
C    -0.991186  -1.390297  1.865597
O    -1.953040  -0.730459  2.626611
C    -0.362800  -2.558463  2.625085
H    -1.464222  -1.773005  0.937278
H    0.612523  -1.859502  -0.039041
H    0.089453  -2.222875  3.567999
H    0.413748  -3.082753  2.048299
H    -1.135013  -3.302140  2.854039
O    0.545808  0.835569  3.404280
H    1.267554  1.083939  4.022301
Sr    -3.431806  -0.010770  3.904436
