18
Energy: -99118.2978245 eV PBE+vdW (tier 2 basis)
N    -0.873586  0.954325  0.992235
C    -0.034205  -0.099166  1.679922
C    1.456696  0.064190  1.365239
O    2.309572  -0.523628  1.972015
H    -0.932521  1.829820  1.526604
H    -0.472682  1.181886  0.068824
H    -0.178484  0.020413  2.761548
C    -0.599568  -1.480098  1.221336
O    -2.017504  -1.422847  1.294068
C    -0.049992  -2.627298  2.062896
H    -0.301106  -1.623396  0.165444
H    -1.818151  0.529075  0.888003
H    1.046194  -2.674257  2.057652
H    -0.396299  -3.592036  1.653973
H    -0.364868  -2.529327  3.113667
O    1.638322  0.902368  0.317001
H    2.596606  0.974546  0.121109
Sr    -3.492424  -2.901569  1.772465
