18
Energy: -99119.2773556 eV PBE+vdW (tier 2 basis)
N    1.279331  -1.964396  0.875982
C    0.556406  -0.734288  1.366711
C    1.439082  0.010714  2.364237
O    1.102934  1.176343  2.740925
H    1.766950  -1.815489  -0.014957
H    0.521530  -2.680831  0.747000
H    0.349589  -0.092303  0.500178
C    -0.806426  -1.200186  1.985857
O    -1.167642  -2.297219  1.137141
C    -1.844164  -0.092089  1.997157
H    -0.619397  -1.572258  3.010868
H    -1.995970  -2.709712  1.435435
H    -2.070536  0.238722  0.975433
H    -1.504030  0.771023  2.582435
H    -2.771320  -0.457541  2.456791
O    2.492349  -0.567812  2.810085
H    1.970959  -2.270491  1.578725
Sr    2.998355  1.378814  4.131997
