18
Energy: -99118.6894028 eV PBE+vdW (tier 2 basis)
N    0.945202  -1.402393  1.013838
C    0.116587  -0.255785  1.354653
C    0.802027  0.580505  2.428282
O    0.596356  0.432836  3.662681
H    1.635756  -1.202904  0.292095
H    1.407367  -1.851018  1.801698
H    0.030050  0.381146  0.462568
C    -1.319671  -0.671701  1.734633
O    -1.275372  -1.631315  2.891431
C    -2.080978  -1.301441  0.590354
H    -1.865912  0.202471  2.123751
H    -1.428776  -2.521484  2.525302
H    -3.082888  -1.614796  0.909724
H    -1.532084  -2.158287  0.176159
H    -2.214461  -0.570012  -0.217780
O    1.687860  1.423335  1.968862
H    2.171343  1.884504  2.689361
Sr    -0.743405  -0.818661  5.064385
