18
Energy: -99119.2250321 eV PBE+vdW (tier 2 basis)
N    0.554746  -0.405729  -0.092257
C    0.072435  -0.007534  1.285302
C    1.307445  0.067101  2.186729
O    1.145631  0.479434  3.367817
H    0.685947  0.413015  -0.702235
H    -0.083893  -1.057039  -0.569740
H    -0.463250  0.945395  1.214303
C    -0.857635  -1.054846  1.963344
O    -0.000452  -2.094131  2.565872
C    -1.912887  -1.660806  1.058723
H    -1.334343  -0.503546  2.786802
H    -0.530993  -2.907096  2.626160
H    -2.602728  -2.285371  1.642805
H    -1.492404  -2.300768  0.266994
H    -2.525762  -0.873979  0.597514
O    2.339632  -0.570808  1.791732
H    1.488229  -0.850799  0.054245
Sr    2.237284  -1.506496  4.031891
