18
Energy: -99118.4376193 eV PBE+vdW (tier 2 basis)
N    0.423857  0.188012  0.172752
C    0.285633  -0.125066  1.632004
C    1.682495  -0.266905  2.229809
O    2.677942  0.142905  1.594598
H    -0.467823  0.616362  -0.105558
H    0.394223  -0.712953  -0.325929
H    -0.146592  0.771766  2.113950
C    -0.737843  -1.272715  1.871986
O    -1.866571  -0.781738  1.158233
C    -1.057341  -1.555964  3.341073
H    -0.345112  -2.195222  1.397098
H    -2.608982  -1.405425  1.229496
H    -1.963607  -2.174873  3.398099
H    -1.259798  -0.641134  3.915436
H    -0.294842  -2.179388  3.840234
O    1.869468  -0.739325  3.426051
H    1.033881  -1.055860  3.841435
Sr    2.710014  1.289522  -0.396765
