18
Energy: -99118.778291 eV PBE+vdW (tier 2 basis)
N    -1.007907  -0.545522  0.103107
C    -0.310207  -0.163199  1.353586
C    1.197039  -0.255037  1.125350
O    1.856556  -1.308819  1.256735
H    -0.509116  -0.256240  -0.740190
H    -1.924057  -0.092545  0.056378
H    -0.533940  0.862039  1.682384
C    -0.774172  -1.192884  2.425629
O    -0.751689  -2.492819  1.722271
C    -2.148323  -0.909827  2.997052
H    -0.034834  -1.250697  3.242230
H    -1.081785  -2.174758  0.808944
H    -2.444243  -1.705393  3.690523
H    -2.915694  -0.843684  2.214444
H    -2.136846  0.036928  3.553777
O    1.737531  0.879067  0.768515
H    2.706128  0.797264  0.616708
Sr    1.346352  -3.565152  1.764388
