18
Energy: -99118.5663815 eV PBE+vdW (tier 2 basis)
N    0.089957  -0.031811  0.046846
C    0.034032  0.017828  1.536057
C    1.426525  0.278492  2.070726
O    2.423478  -0.114289  1.427697
H    -0.134104  0.897732  -0.324438
H    -0.719287  -0.627273  -0.208827
H    -0.677129  0.784266  1.881870
C    -0.477208  -1.402699  2.046145
O    -1.480579  -1.824235  1.139047
C    -0.920398  -1.395316  3.497326
H    0.360385  -2.113250  1.915087
H    -2.363939  -1.728822  1.537287
H    -0.094104  -1.159857  4.181601
H    -1.276978  -2.394877  3.776231
H    -1.735741  -0.676805  3.667801
O    1.628388  0.849557  3.228040
H    0.808133  1.155732  3.665621
Sr    2.416568  -0.874374  -0.752115
