18
Energy: -99118.776766 eV PBE+vdW (tier 2 basis)
N    0.879793  -1.149693  0.609440
C    0.054377  -0.087859  1.307617
C    0.855404  0.474843  2.500250
O    0.687267  0.143832  3.676668
H    1.889226  -0.960954  0.568135
H    0.656871  -2.011310  1.179110
H    -0.136395  0.729691  0.600966
C    -1.218949  -0.842726  1.777670
O    -0.754176  -1.989287  2.459467
C    -2.169556  -1.179536  0.630411
H    -1.749798  -0.133554  2.451252
H    0.547395  -1.295255  -0.354177
H    -2.508783  -0.277062  0.104639
H    -3.053465  -1.686485  1.033977
H    -1.720970  -1.871960  -0.097010
O    1.734230  1.372735  2.106496
H    2.228756  1.755185  2.866373
Sr    -0.498228  -1.832605  4.628716
