10
Energy: -7742.5086352 eV PBE+vdW (tier 2 basis)
N    -0.764939  -0.084975  0.656361
C    0.683857  -0.048065  0.674865
C    1.336518  0.237371  2.025012
O    0.751243  0.435093  3.067991
H    -1.142867  0.801232  0.992922
H    -1.106258  -0.793439  1.306768
H    1.088308  -1.003948  0.307617
H    1.049020  0.710071  -0.035180
O    2.696323  0.245700  1.922515
H    3.035795  0.433959  2.819128
