10
Energy: -7742.31237296 eV PBE+vdW (tier 2 basis)
N    -0.645397  0.784376  0.928063
C    0.042255  -0.381047  1.445850
C    1.528046  -0.272396  1.835958
O    2.160447  -1.203338  2.272917
H    -0.359474  1.108625  0.010327
H    -0.803750  1.544475  1.580951
H    -0.482672  -0.747700  2.339450
H    -0.022902  -1.198706  0.713931
O    2.091546  0.952016  1.655835
H    1.385902  1.530695  1.295716
