10
Energy: -7742.31756479 eV PBE+vdW (tier 2 basis)
N    -0.929748  0.748415  1.164205
C    -0.044948  -0.351175  1.489840
C    1.458196  -0.094547  1.301055
O    1.932057  0.941894  0.907470
H    -0.686279  1.566197  1.724420
H    -0.787565  1.031415  0.193854
H    -0.209525  -0.650839  2.538800
H    -0.318851  -1.229691  0.881250
O    2.275757  -1.147383  1.615229
H    1.739907  -1.903285  1.914876
