25
Energy: -167645.467723 eV PBE+vdW (tier 2 basis)
N    1.090525  0.752916  0.772759
C    -0.149792  0.052993  1.268639
C    -0.200374  -0.137242  2.805859
O    0.881214  -0.114130  3.537089
H    1.374221  0.387628  -0.142532
H    0.917817  1.756040  0.644393
H    -0.999408  0.709380  1.027071
C    -0.333797  -1.335471  0.589480
C    -1.725239  -1.584994  -0.031399
C    -2.943321  -1.526393  0.904934
C    -2.979973  -2.629168  1.972610
N    -3.529061  -2.087003  3.277024
H    -0.073903  -2.130770  1.303541
H    0.399405  -1.431838  -0.226421
H    -1.685779  -2.566184  -0.527676
H    -1.890246  -0.855573  -0.837867
H    -3.850398  -1.586195  0.288811
H    -2.978661  -0.543455  1.398094
H    -1.983924  -3.013431  2.220309
H    -3.606750  -3.478076  1.678304
H    -4.467990  -1.683523  3.159355
H    -3.593540  -2.814627  4.001301
O    -1.294744  -0.385755  3.308965
H    -2.881532  -1.342384  3.607859
Cd    2.594310  0.468200  2.464756
