25
Energy: -167645.658081 eV PBE+vdW (tier 2 basis)
N    -0.745430  -0.081573  0.264334
C    0.310273  -0.189257  1.180968
C    1.755376  -0.363317  0.411349
O    2.583133  0.565996  0.586116
H    -3.061664  0.276183  6.871402
H    -0.892289  0.807122  -0.205086
H    0.430335  0.760869  1.713957
C    0.192722  -1.394647  2.132279
C    -1.050687  -1.378338  3.039700
C    -1.025949  -0.350710  4.186745
C    -2.242416  -0.544937  5.086434
N    -2.239307  0.419640  6.267196
H    1.108483  -1.458198  2.738694
H    0.165081  -2.308908  1.522138
H    -1.137623  -2.386793  3.471328
H    -1.949117  -1.225487  2.423769
H    -1.020759  0.677222  3.789561
H    -0.103032  -0.478307  4.776248
H    -2.274501  -1.551412  5.522222
H    -3.185827  -0.368758  4.554764
H    -2.253556  1.401166  5.955579
H    -1.401257  0.295104  6.853107
O    1.927980  -1.378850  -0.300692
H    -0.968403  -0.891772  -0.309908
Cd    4.007432  -0.514036  -0.866209
