25
Energy: -167645.516301 eV PBE+vdW (tier 2 basis)
N    -0.782414  0.643721  0.426428
C    0.191654  0.189009  1.327234
C    1.470521  -0.446456  0.515917
O    2.535963  0.218410  0.571351
H    -2.323349  -0.112534  6.774548
H    -0.651660  1.545751  -0.021551
H    0.629665  1.047523  1.849557
C    -0.317087  -0.894702  2.298330
C    -1.423053  -0.378266  3.241702
C    -0.942275  0.463911  4.440653
C    -0.515411  -0.325130  5.674949
N    -1.721187  -0.875882  6.433372
H    0.538283  -1.293311  2.865018
H    -0.704069  -1.733463  1.702414
H    -1.999643  -1.253763  3.585445
H    -2.136784  0.215016  2.655063
H    -1.716993  1.191575  4.730380
H    -0.078198  1.083168  4.158263
H    0.022712  0.301395  6.395826
H    0.111226  -1.193387  5.434689
H    -1.432723  -1.430675  7.251903
H    -2.302628  -1.482084  5.837593
O    1.298247  -1.507778  -0.127061
H    -1.277268  -0.038648  -0.143251
Cd    3.481473  -1.273399  -0.899776
