25
Energy: -167644.251715 eV PBE+vdW (tier 2 basis)
N    -0.222806  0.664226  0.683350
C    0.031661  0.266588  2.091645
C    1.547337  0.229640  2.380198
O    2.410102  0.082650  1.504921
H    -1.050714  0.187050  0.316388
H    -0.394716  1.671415  0.599997
H    -0.403497  1.029026  2.759275
C    -0.571900  -1.124499  2.414211
C    -2.048541  -1.123642  2.861648
C    -3.085554  -0.706262  1.815519
C    -4.546064  -0.973003  2.350456
N    -5.568605  -0.634920  1.425886
H    0.017932  -1.588427  3.217968
H    -0.427211  -1.777654  1.537341
H    -2.152568  -0.498758  3.762637
H    -2.261160  -2.152376  3.189308
H    -2.962418  -1.280786  0.883284
H    -3.027032  0.366377  1.571817
H    -4.684244  -0.395433  3.274901
H    -4.611646  -2.045593  2.591720
H    -5.922082  -1.314561  0.760021
H    -6.094920  0.228430  1.510116
O    1.954360  0.305834  3.623609
H    1.237320  0.452566  4.272332
Cd    1.712671  0.159193  -0.620851
