25
Energy: -167645.570779 eV PBE+vdW (tier 2 basis)
N    2.438464  -2.517505  2.373432
C    1.137980  -2.201601  1.972372
C    1.165708  -1.815743  0.358292
O    0.922297  -2.771084  -0.418125
H    2.820971  -3.433257  2.159291
H    3.122799  -1.778186  2.504970
H    0.515900  -3.104756  1.990922
C    0.504440  -1.063585  2.785673
C    -0.945805  -0.741106  2.394965
C    -1.761481  -0.024588  3.490220
C    -1.268628  1.382924  3.809625
N    -2.178072  2.050397  4.835531
H    1.148036  -0.173778  2.715901
H    0.541882  -1.412688  3.829680
H    -1.481913  -1.676560  2.176440
H    -0.974149  -0.146820  1.469287
H    -1.755049  -0.636717  4.406951
H    -2.808214  0.028408  3.151145
H    -1.275422  2.036859  2.928400
H    -0.263477  1.398357  4.248098
H    -1.862714  3.004481  5.062720
H    -3.146413  2.118563  4.489580
O    1.487425  -0.652956  0.027211
H    -2.207348  1.516253  5.716249
Cd    1.472783  -1.438312  -2.201828
