25
Energy: -167644.225748 eV PBE+vdW (tier 2 basis)
N    0.351680  1.394249  0.882273
C    0.400714  0.435350  2.023981
C    1.861566  0.020857  2.303107
O    2.848766  0.598072  1.825157
H    0.080721  0.906644  0.020346
H    -0.362093  2.110545  1.043648
H    0.098650  0.998985  2.922782
C    -0.578370  -0.751133  1.788356
C    -1.004454  -1.619984  2.991370
C    -1.711839  -0.882692  4.137210
C    -2.275262  -1.841674  5.210182
N    -3.345827  -2.662695  4.731475
H    -0.163306  -1.400946  1.001952
H    -1.495806  -0.306999  1.373611
H    -0.175006  -2.237983  3.390493
H    -1.687029  -2.379328  2.580106
H    -2.534190  -0.269468  3.734980
H    -1.034540  -0.188693  4.658622
H    -2.622335  -1.215463  6.060996
H    -1.488238  -2.494028  5.612535
H    -3.474913  -3.590627  5.126274
H    -4.202231  -2.222366  4.402144
O    2.084866  -0.966116  3.132869
H    1.255540  -1.408595  3.417631
Cd    2.480317  2.343155  0.487378
