25
Energy: -167644.619744 eV PBE+vdW (tier 2 basis)
N    0.295770  0.866208  0.214867
C    -0.092011  0.454608  1.632807
C    1.090592  -0.338945  2.222831
O    0.927391  -0.872540  3.357068
H    -0.120613  1.769685  -0.046788
H    -0.015844  0.161311  -0.470103
H    -0.123049  1.389903  2.213244
C    -1.462196  -0.225125  1.710852
C    -1.635138  -1.624397  1.094971
C    -1.670836  -1.709206  -0.440219
C    -2.213827  -3.069251  -0.949617
N    -3.599876  -3.262067  -0.646966
H    -2.208228  0.472119  1.296000
H    -1.686396  -0.286909  2.785328
H    -2.596624  -2.003635  1.470725
H    -0.873822  -2.312521  1.495488
H    -0.665059  -1.611224  -0.889450
H    -2.298960  -0.905313  -0.859624
H    -1.641630  -3.898779  -0.514281
H    -2.045578  -3.106704  -2.046141
H    -4.293043  -2.667265  -1.094666
H    -3.932298  -4.194893  -0.420517
O    2.179488  -0.359406  1.571521
H    1.328636  0.924716  0.155506
Cd    3.112524  -1.496707  3.420196
