25
Energy: -167644.244071 eV PBE+vdW (tier 2 basis)
N    0.880127  -0.527005  0.515904
C    0.678519  -0.705880  1.977789
C    1.788810  -1.597336  2.571823
O    2.445749  -2.411021  1.908618
H    1.399525  0.332493  0.308911
H    -0.019876  -0.456223  0.033234
H    0.758385  0.278271  2.468946
C    -0.698985  -1.343822  2.295805
C    -1.883337  -0.360954  2.407111
C    -2.305168  0.355369  1.122696
C    -3.600249  1.229761  1.306160
N    -4.778979  0.474389  1.560570
H    -0.623564  -1.884462  3.250345
H    -0.903458  -2.121414  1.540348
H    -1.662697  0.380076  3.191920
H    -2.731382  -0.952305  2.781385
H    -2.496682  -0.366279  0.311583
H    -1.536708  1.064710  0.772746
H    -3.721158  1.805551  0.372667
H    -3.439930  1.937739  2.129189
H    -5.303488  0.059660  0.796051
H    -5.271786  0.550342  2.444239
O    2.024398  -1.538079  3.859473
H    1.503382  -0.858208  4.331591
Cd    2.164766  -2.354398  -0.308826
