25
Energy: -167645.322339 eV PBE+vdW (tier 2 basis)
N    -1.145253  -2.125988  1.035358
C    -0.457484  -1.127975  0.289905
C    0.986538  -1.664165  -0.092821
O    1.949298  -0.847413  -0.106135
H    -1.216368  -3.041093  0.593055
H    -2.023598  -1.824573  1.447796
H    -0.843504  -1.017604  -0.749789
C    -0.470855  0.258314  0.937094
C    0.115152  0.404934  2.357718
C    -0.873826  0.151734  3.513081
C    -0.263571  0.581164  4.843524
N    -1.246275  0.413843  5.997407
H    -1.514486  0.612782  0.920497
H    0.074136  0.931583  0.264660
H    0.489267  1.435424  2.444243
H    0.995691  -0.244461  2.474115
H    -1.148633  -0.913814  3.557479
H    -1.796862  0.727435  3.332341
H    0.018787  1.641497  4.842351
H    0.619960  -0.011923  5.110542
H    -2.096865  0.976361  5.850679
H    -1.541643  -0.566850  6.105378
O    1.067887  -2.871442  -0.452017
H    -0.831310  0.711529  6.892349
Cd    3.237818  -2.493302  -1.035811
