25
Energy: -167645.983458 eV PBE+vdW (tier 2 basis)
N    0.502985  -0.748694  0.229188
C    0.269793  -0.101901  1.588023
C    1.349098  -0.595621  2.546576
O    1.414036  -0.030536  3.674836
H    -0.359296  -0.779324  -0.333347
H    1.214255  -0.240030  -0.315971
H    0.364583  0.982583  1.450295
C    -1.134546  -0.411398  2.160666
C    -1.572433  -1.874282  2.407514
C    -0.802599  -2.771268  3.403627
C    -0.726954  -2.284292  4.858552
N    0.509973  -2.813674  5.554115
H    -1.869289  0.048349  1.481461
H    -1.197284  0.183198  3.082604
H    -1.612348  -2.422904  1.452991
H    -2.623848  -1.813585  2.724604
H    0.214100  -2.956323  3.020914
H    -1.284816  -3.758883  3.384628
H    -1.603821  -2.618967  5.431022
H    -0.685426  -1.190994  4.936581
H    0.490294  -2.554349  6.547529
H    0.517943  -3.840498  5.535238
O    2.011757  -1.641818  2.240784
H    0.863044  -1.708676  0.366444
Cd    2.283801  -1.926111  4.510127
