25
Energy: -167644.289959 eV PBE+vdW (tier 2 basis)
N    -0.367545  1.797951  0.392748
C    -0.312049  0.858641  1.541428
C    1.099496  0.854685  2.158570
O    2.120068  1.162888  1.528904
H    -0.670174  2.733190  0.683689
H    -1.045250  1.472517  -0.303419
H    -1.014993  1.201055  2.319119
C    -0.656874  -0.585208  1.095301
C    -2.131709  -0.838527  0.729674
C    -3.083208  -0.929428  1.929966
C    -4.517084  -1.317057  1.496321
N    -5.405088  -1.474228  2.601747
H    -0.357052  -1.281474  1.892483
H    -0.012401  -0.833517  0.235527
H    -2.154896  -1.788136  0.174858
H    -2.499775  -0.082394  0.014189
H    -3.144909  0.023489  2.478468
H    -2.707832  -1.685130  2.638257
H    -4.453582  -2.268759  0.921407
H    -4.941922  -0.570894  0.811615
H    -6.382235  -1.209977  2.515299
H    -5.196033  -2.143482  3.338365
O    1.250803  0.449853  3.396461
H    0.410312  0.253201  3.855435
Cd    1.817390  1.996133  -0.530927
