25
Energy: -167644.707186 eV PBE+vdW (tier 2 basis)
N    0.580324  -0.357763  0.161543
C    -0.010091  -0.156392  1.552465
C    1.155622  0.249258  2.480100
O    0.930209  0.309986  3.720344
H    0.835307  -1.344040  0.006606
H    -0.071244  -0.075928  -0.582633
H    -0.647423  0.738156  1.481036
C    -0.856320  -1.349862  2.007313
C    -0.099144  -2.670178  2.215815
C    -1.005088  -3.886264  2.472124
C    -1.754621  -3.841690  3.847953
N    -2.501204  -5.024001  4.112026
H    -1.669296  -1.482944  1.274929
H    -1.340620  -1.028276  2.939479
H    0.622897  -2.561642  3.040205
H    0.499648  -2.927814  1.322873
H    -0.389034  -4.795001  2.453782
H    -1.750103  -3.990473  1.669734
H    -2.444078  -2.985719  3.869661
H    -1.006175  -3.708224  4.644789
H    -2.055556  -5.856925  4.483851
H    -3.461974  -5.125562  3.801431
O    2.258129  0.558943  1.932446
H    1.453629  0.200675  0.100920
Cd    3.035377  1.162700  4.081624
