25
Energy: -167645.544758 eV PBE+vdW (tier 2 basis)
N    -1.252349  1.252215  3.368906
C    -1.023040  0.079777  2.644153
C    0.620739  -0.133728  2.519838
O    1.219874  0.426920  1.574628
H    -4.406937  -2.924430  -1.212846
H    -1.141801  1.251644  4.378110
H    -1.331715  -0.788982  3.239089
C    -1.665697  0.098958  1.251038
C    -1.662374  -1.245062  0.509400
C    -2.333536  -1.107735  -0.868354
C    -2.411344  -2.376103  -1.709699
N    -3.470423  -3.353699  -1.202663
H    -1.174292  0.869382  0.638510
H    -2.704502  0.426646  1.407095
H    -2.181324  -1.993910  1.133142
H    -0.632471  -1.610092  0.370730
H    -1.766008  -0.385723  -1.474714
H    -3.340000  -0.667216  -0.769094
H    -1.466927  -2.934655  -1.723299
H    -2.695164  -2.151538  -2.744530
H    -3.512917  -4.197113  -1.792816
H    -3.281409  -3.661590  -0.239216
O    1.147741  -0.788658  3.450734
H    -1.148270  2.156301  2.916576
Cd    3.223142  -0.225610  2.614281
