25
Energy: -167643.960685 eV PBE+vdW (tier 2 basis)
N    1.176661  -1.028972  0.567475
C    0.687171  -0.503711  1.796622
C    1.482415  -1.117123  3.022339
O    2.331165  -0.431579  3.594718
H    1.009837  -2.007217  0.345366
H    2.057836  -0.672835  0.206333
H    0.921306  0.567091  1.843804
C    -0.821675  -0.730949  1.995698
C    -1.704636  0.148431  1.081289
C    -1.668173  -0.207079  -0.397094
C    -2.870878  0.451431  -1.226461
N    -2.855636  1.857969  -1.288075
H    -1.084612  -0.511544  3.041133
H    -1.063355  -1.796362  1.824897
H    -1.450153  1.209514  1.230114
H    -2.729914  0.029198  1.467572
H    -1.788755  -1.289484  -0.553933
H    -0.738646  0.107883  -0.888238
H    -3.807427  0.110606  -0.764476
H    -2.779422  0.032305  -2.239451
H    -2.350482  2.349540  -2.019656
H    -3.434645  2.427267  -0.678829
O    1.284171  -2.366030  3.398717
H    0.545485  -2.803606  2.929625
Cd    3.738237  -1.154719  5.334534
