25
Energy: -167645.500748 eV PBE+vdW (tier 2 basis)
N    2.516254  0.318985  0.972544
C    1.548895  -0.583141  1.429565
C    1.188606  -1.633704  0.202202
O    1.845350  -2.703430  0.198540
H    3.484680  0.020881  0.906524
H    2.247470  1.060951  0.331854
H    1.989343  -1.240303  2.189635
C    0.266407  0.103038  1.924019
C    -0.744220  -0.838280  2.592787
C    -2.057452  -0.141449  3.000381
C    -2.007090  0.792351  4.206438
N    -1.970858  0.024097  5.526444
H    -0.209368  0.622144  1.078475
H    0.605403  0.879101  2.626978
H    -0.273432  -1.343513  3.454691
H    -1.016225  -1.647607  1.899826
H    -2.846222  -0.893848  3.161194
H    -2.419847  0.467673  2.158812
H    -2.902946  1.421785  4.261189
H    -1.128005  1.448314  4.214887
H    -2.812657  -0.559612  5.637453
H    -1.154409  -0.599451  5.587405
O    0.358446  -1.272674  -0.663423
H    -1.931889  0.664011  6.332942
Cd    0.926769  -3.211322  -1.850362
