25
Energy: -167645.72596 eV PBE+vdW (tier 2 basis)
N    0.354368  0.457164  0.517828
C    0.505774  0.207364  1.972218
C    1.935917  -0.296562  2.230236
O    2.613317  -0.820561  1.349971
H    -0.621038  0.339886  0.231396
H    0.575861  1.436830  0.312717
H    0.360429  1.146147  2.530794
C    -0.531053  -0.807407  2.522713
C    -0.427355  -2.255057  2.007604
C    -1.480894  -3.152848  2.710587
C    -1.512208  -4.539874  2.206766
N    -1.535889  -5.587924  2.957014
H    -1.531622  -0.398130  2.312376
H    -0.440400  -0.806031  3.619185
H    0.575050  -2.663577  2.202227
H    -0.587510  -2.297753  0.919203
H    -2.491646  -2.751933  2.491163
H    -1.364208  -3.133416  3.804003
H    -1.541457  -4.723859  1.127036
H    2.218022  -1.425441  -2.318830
H    -1.594636  -6.530262  2.561286
H    -1.517684  -5.528519  3.979259
O    2.428309  -0.224422  3.453845
H    1.870256  0.290557  4.068426
Cd    1.883949  -0.801113  -0.825657
