25
Energy: -167645.986983 eV PBE+vdW (tier 2 basis)
N    0.620534  -0.193338  -0.043021
C    0.039228  -0.055254  1.354447
C    1.147218  -0.266951  2.378175
O    1.042235  0.341470  3.477727
H    1.243841  -1.018594  -0.074025
H    -0.119620  -0.311005  -0.751250
H    -0.360455  0.960626  1.445714
C    -1.071227  -1.127888  1.569162
C    -1.343082  -1.551795  3.038714
C    -0.592358  -2.840661  3.448468
C    -0.468621  -3.156474  4.939184
N    0.516142  -2.283711  5.698498
H    -0.804166  -2.026280  0.989451
H    -1.992041  -0.725200  1.127179
H    -2.420399  -1.733765  3.138792
H    -1.125810  -0.710167  3.711869
H    0.418263  -2.879948  2.998640
H    -1.109261  -3.700582  2.996080
H    -0.115746  -4.187447  5.056552
H    -1.439391  -3.075846  5.449234
H    0.036243  -1.458745  6.076741
H    0.859603  -2.797383  6.517052
O    1.999099  -1.193909  2.155925
H    1.180750  0.629550  -0.312276
Cd    2.123021  -1.410704  4.419967
