25
Energy: -167645.619648 eV PBE+vdW (tier 2 basis)
N    -0.314592  -1.467074  0.598082
C    0.431523  -0.536054  1.337490
C    1.943869  -0.363234  0.720298
O    2.206161  0.763159  0.227153
H    -2.199621  -1.132125  6.101680
H    -0.717681  -1.170847  -0.286110
H    -0.001278  0.462305  1.207608
C    0.609493  -0.915604  2.819982
C    -0.710479  -0.983723  3.614146
C    -1.365803  0.377423  3.895282
C    -2.709331  0.313698  4.614188
N    -2.585635  -0.179147  6.054709
H    1.299199  -0.198277  3.289160
H    1.105638  -1.895481  2.866222
H    -0.466128  -1.495947  4.559726
H    -1.419652  -1.634460  3.080065
H    -1.578784  0.903187  2.952313
H    -0.676933  1.037754  4.448114
H    -3.412480  -0.371374  4.123719
H    -3.177617  1.302635  4.681350
H    -3.504002  -0.196306  6.521119
H    -1.970266  0.433301  6.608981
O    2.716427  -1.348843  0.753707
H    -0.015545  -2.439822  0.607866
Cd    4.260514  -0.048147  -0.399850
