27
Energy: -241750.678425 eV PBE+vdW (tier 2 basis)
C    -0.167486  -0.586265  -0.216743
C    -0.074903  -0.317938  1.253243
O    1.035030  -0.094189  1.797572
H    0.239163  0.278319  -0.759138
H    -1.185383  -0.782491  -0.568936
H    0.470792  -1.444807  -0.463904
N    -1.230379  -0.314559  1.954750
C    -1.437154  -0.055546  3.390009
C    -0.797650  1.271883  3.861996
O    0.359474  1.303567  4.359793
H    -2.070607  -0.507019  1.417897
H    -2.523795  0.076880  3.490830
C    -1.136884  -1.249437  4.331292
O    0.273753  -1.639068  4.255681
C    -2.017469  -2.451704  4.034375
H    -1.324747  -0.888456  5.355911
H    0.305700  -2.588260  4.465338
H    -1.805193  -3.265924  4.741625
H    -1.866752  -2.827190  3.013667
H    -3.078433  -2.201337  4.164192
N    -1.548932  2.361567  3.745017
C    -1.135950  3.708867  4.140631
H    -2.479545  2.263119  3.347928
H    -1.971667  4.203744  4.646374
H    -0.852628  4.295828  3.257497
H    -0.285880  3.637561  4.823233
Ba    2.372781  -0.043375  3.864778
