27
Energy: -241750.608644 eV PBE+vdW (tier 2 basis)
C    -0.390955  -0.073313  0.222357
C    -0.274585  0.056173  1.708908
O    0.722279  0.612777  2.234137
H    -1.302511  -0.582016  -0.107879
H    0.482796  -0.618024  -0.159151
H    -0.357888  0.930517  -0.222961
N    -1.288178  -0.434176  2.457275
C    -1.411383  -0.401630  3.921802
C    -1.153743  1.007537  4.496098
O    -0.056232  1.293337  5.050986
H    -2.050058  -0.874336  1.950222
H    -2.469738  -0.622597  4.121868
C    -0.653239  -1.522649  4.674074
O    0.787469  -1.445697  4.414945
C    -1.165868  -2.906328  4.311316
H    -0.805357  -1.333775  5.749000
H    1.124568  -2.356988  4.453729
H    -0.631653  -3.675663  4.886470
H    -1.043214  -3.122407  3.241584
H    -2.227329  -3.010589  4.571179
N    -2.131162  1.905477  4.420443
C    -3.475474  1.747345  3.857855
H    -1.905661  2.806918  4.840617
H    -4.052843  0.992227  4.407381
H    -3.434512  1.490424  2.792706
H    -3.996781  2.703368  3.955692
Ba    2.211250  0.794087  4.205349
