27
Energy: -241750.14945 eV PBE+vdW (tier 2 basis)
C    0.407846  0.815288  -0.130803
C    -0.368241  0.557104  1.118225
O    -0.691718  1.514111  1.892435
H    0.629930  -0.095141  -0.696220
H    1.349825  1.319061  0.124376
H    -0.162202  1.506115  -0.767484
N    -0.717433  -0.700397  1.406062
C    -1.623032  -1.100072  2.487186
C    -1.008839  -0.838966  3.875289
O    -1.332286  0.209778  4.514549
H    -0.616595  -1.409175  0.674380
H    -2.526619  -0.470099  2.441284
C    -2.049066  -2.589537  2.238713
O    -2.153759  -2.794948  0.838120
C    -3.304000  -2.951972  3.012933
H    -1.221763  -3.250692  2.553574
H    -3.086648  -2.825254  0.567942
H    -3.545008  -4.011197  2.864578
H    -4.162127  -2.348408  2.681818
H    -3.175088  -2.791988  4.092275
N    -0.156401  -1.721480  4.372807
C    0.494713  -1.617865  5.679608
H    0.068707  -2.534642  3.805044
H    -0.148148  -1.058469  6.364521
H    1.466228  -1.114252  5.588815
H    0.655158  -2.626435  6.072578
Ba    -1.420433  2.584532  3.923396
