27
Energy: -241749.317308 eV PBE+vdW (tier 2 basis)
C    -0.260815  0.345080  -0.019565
C    -0.267794  0.500909  1.462828
O    0.811059  0.377623  2.133934
H    0.054190  -0.680256  -0.262993
H    0.484256  1.020938  -0.458891
H    -1.236765  0.534670  -0.477981
N    -1.418186  0.757167  2.090339
C    -1.610711  0.719311  3.544772
C    -2.934236  -0.032708  3.906504
O    -2.852958  -1.011560  4.630155
H    -2.259641  0.763943  1.516441
H    -0.852928  0.038285  3.958381
C    -1.491488  2.084777  4.241944
O    -0.045524  2.462548  4.228715
C    -1.995843  2.082741  5.673380
H    -2.006140  2.850365  3.640989
H    -0.012819  3.377966  4.560711
H    -1.798318  3.049920  6.154460
H    -1.534668  1.284849  6.269817
H    -3.082314  1.931617  5.699882
N    -4.075828  0.443861  3.349827
C    -5.373356  -0.189966  3.608186
H    -4.089551  1.369299  2.931575
H    -6.056266  0.050644  2.788002
H    -5.804003  0.155791  4.557173
H    -5.231959  -1.273355  3.663140
Ba    2.147604  1.028539  3.964273
