27
Energy: -241749.369009 eV PBE+vdW (tier 2 basis)
C    -0.782867  -1.096436  0.090135
C    -1.030092  -0.201204  1.269450
O    -0.165194  0.173287  2.050240
H    -0.129623  -0.570446  -0.618990
H    -1.695809  -1.407739  -0.430012
H    -0.232401  -1.983189  0.427625
N    -2.351398  0.213792  1.469273
C    -2.616556  1.133371  2.549766
C    -3.727618  0.677075  3.484846
O    -4.666470  1.484905  3.831579
H    -3.083641  -0.072659  0.828408
H    -1.665040  1.100442  3.128326
C    -2.741338  2.582199  2.011101
O    -2.815510  3.544412  3.139838
C    -3.892287  2.858243  1.055649
H    -1.794569  2.781950  1.491901
H    -1.934183  3.929364  3.278960
H    -3.894149  3.912379  0.750858
H    -4.878188  2.579261  1.459981
H    -3.768665  2.272733  0.135915
N    -3.721492  -0.547141  3.987971
C    -2.705007  -1.598483  3.863194
H    -4.527990  -0.761532  4.574233
H    -2.772979  -2.232327  4.752567
H    -1.699677  -1.168085  3.816056
H    -2.886358  -2.214284  2.974092
Ba    -5.110896  3.766111  4.312040
