27
Energy: -241750.127933 eV PBE+vdW (tier 2 basis)
C    -0.192659  -1.787936  0.554983
C    -0.288692  -0.799193  1.670768
O    0.734405  -0.145009  2.048028
H    0.139790  -1.263071  -0.351720
H    -1.138881  -2.297274  0.347067
H    0.576540  -2.534870  0.791086
N    -1.475823  -0.615585  2.256056
C    -1.794138  0.405889  3.251430
C    -1.253111  0.014119  4.649877
O    -0.064851  0.404478  4.915224
H    -2.299383  -1.122005  1.918818
H    -1.203981  1.301758  3.013148
C    -3.294063  0.805764  3.088635
O    -3.983341  -0.386672  2.690115
C    -3.456352  1.924456  2.067064
H    -3.665152  1.147229  4.070505
H    -4.863694  -0.155013  2.350697
H    -4.520241  2.159549  1.929313
H    -3.040247  1.642824  1.090227
H    -2.969931  2.846889  2.411305
N    -1.914391  -0.679796  5.560460
C    -3.244274  -1.294052  5.556214
H    -1.382484  -0.798528  6.424650
H    -3.153537  -2.308656  5.960263
H    -3.653473  -1.342132  4.545140
H    -3.919240  -0.719069  6.203360
Ba    2.083204  0.779904  3.827286
