27
Energy: -241749.598858 eV PBE+vdW (tier 2 basis)
C    -0.830448  -0.869225  0.032612
C    -0.852925  0.140829  1.142104
O    -0.522444  1.321658  0.964444
H    -1.186830  -1.864064  0.320216
H    0.200465  -0.951792  -0.337871
H    -1.435517  -0.490713  -0.800840
N    -1.276271  -0.315790  2.369787
C    -1.243481  0.347679  3.673399
C    -1.857851  1.747158  3.809580
O    -2.249428  2.064225  4.998966
H    -1.574191  -1.285535  2.400540
H    -1.878121  -0.278253  4.317002
C    0.186057  0.292476  4.302475
O    0.026133  0.388956  5.787365
C    1.171125  1.333244  3.817215
H    0.556895  -0.723408  4.106969
H    0.823230  -0.024065  6.163748
H    0.832661  2.352951  4.046459
H    1.295181  1.263415  2.729204
H    2.157493  1.179952  4.273562
N    -1.926445  2.559593  2.792139
C    -2.506350  3.897927  2.815262
H    -1.410974  2.214103  1.928354
H    -3.093259  4.039231  1.901171
H    -1.708560  4.652480  2.832943
H    -3.151074  4.020184  3.689374
Ba    -1.664075  1.776784  7.247818
