27
Energy: -241750.19281 eV PBE+vdW (tier 2 basis)
C    0.377532  0.933463  0.079055
C    -0.419455  0.608556  1.298838
O    -0.761880  1.522780  2.113973
H    1.295267  1.460652  0.370853
H    -0.204299  1.624428  -0.547380
H    0.640759  0.050984  -0.512405
N    -0.769322  -0.663858  1.514462
C    -1.721974  -1.113387  2.538675
C    -1.114934  -1.023541  3.953479
O    -1.323899  0.015918  4.650661
H    -0.633956  -1.325754  0.748906
H    -2.579199  -0.421067  2.536402
C    -2.253736  -2.514997  2.145517
O    -2.513569  -2.397846  0.750807
C    -3.478430  -2.907484  2.960350
H    -1.450708  -3.267510  2.298776
H    -2.924282  -3.215417  0.423332
H    -3.819108  -3.909869  2.671341
H    -4.302598  -2.203847  2.785251
H    -3.261401  -2.943138  4.036988
N    -0.384525  -2.030902  4.403114
C    0.251351  -2.089415  5.720129
H    -0.255902  -2.830128  3.787001
H    -0.309288  -1.468066  6.423346
H    1.289622  -1.737343  5.662143
H    0.247617  -3.127442  6.066810
Ba    -1.421683  2.432232  4.241577
