27
Energy: -241749.846633 eV PBE+vdW (tier 2 basis)
C    -0.588095  -0.449955  0.262794
C    -0.379416  -0.145906  1.709583
O    0.763179  0.183901  2.150545
H    0.098693  -1.249001  -0.046098
H    -0.327065  0.440764  -0.325960
H    -1.615136  -0.745356  0.024905
N    -1.431238  -0.219573  2.541435
C    -1.377121  0.172530  3.947488
C    -0.604615  -0.877052  4.792057
O    0.596428  -0.570637  5.099064
H    -2.337115  -0.467908  2.150841
H    -0.705520  1.039123  4.000944
C    -2.755352  0.670817  4.503533
O    -2.698759  0.325819  5.885880
C    -4.017509  0.180560  3.796975
H    -2.727602  1.767834  4.390576
H    -3.342962  0.858313  6.380518
H    -4.890820  0.578100  4.330901
H    -4.124876  -0.909419  3.773490
H    -4.094065  0.581407  2.774984
N    -1.071613  -2.065920  5.130878
C    -2.392993  -2.660032  4.928139
H    -0.414411  -2.612405  5.687108
H    -3.130239  -2.190051  5.588052
H    -2.320334  -3.724733  5.166629
H    -2.705066  -2.569075  3.882421
Ba    2.492621  0.326855  3.872317
