25
Energy: -100717.087416 eV PBE+vdW (tier 2 basis)
N    -0.247400  1.104907  0.545613
C    0.627823  0.439321  1.486725
C    1.866059  -0.228495  0.870646
O    1.908663  -0.459140  -0.392762
H    -1.860924  -0.709148  7.058308
H    0.146770  1.978995  0.203135
H    1.024147  1.191832  2.187779
C    -0.159740  -0.611093  2.319378
C    -1.357179  0.028827  3.035662
C    -2.323613  -0.977411  3.683965
C    -1.934935  -1.484885  5.066776
N    -2.159455  -0.403445  6.122081
H    0.530014  -1.102149  3.021970
H    -0.531452  -1.390581  1.633749
H    -1.908233  0.622107  2.294641
H    -0.990910  0.769957  3.771765
H    -2.424216  -1.864323  3.040925
H    -3.339868  -0.552851  3.734437
H    -0.876480  -1.763975  5.141116
H    -2.545191  -2.338528  5.384237
H    -3.156317  -0.150463  6.178978
H    -1.639623  0.454215  5.888041
O    2.867248  -0.541011  1.618445
H    -0.448810  0.520309  -0.266053
Sr    4.100622  -1.180973  -0.241556
