25
Energy: -100717.010604 eV PBE+vdW (tier 2 basis)
N    1.360915  0.657908  -0.361957
C    0.306881  0.055980  0.472430
C    0.929353  0.175254  1.865699
O    1.884222  -0.619984  2.197700
H    -5.169098  -2.056893  -0.773594
H    2.003396  -0.050262  -0.717327
H    -0.557017  0.734187  0.455605
C    -0.085997  -1.377726  0.084670
C    -1.316953  -1.962778  0.800222
C    -2.660479  -1.488261  0.213586
C    -3.829612  -2.209001  0.871749
N    -5.159005  -1.822809  0.229463
H    0.777473  -2.029932  0.280062
H    -0.246861  -1.397574  -1.004323
H    -1.279733  -1.735446  1.878119
H    -1.269416  -3.059100  0.722908
H    -2.665580  -1.692744  -0.870006
H    -2.776204  -0.399308  0.337864
H    -3.927397  -1.968564  1.937685
H    -3.752887  -3.298648  0.767580
H    -5.950802  -2.312767  0.669790
H    -5.335970  -0.811581  0.309270
O    0.626669  1.171310  2.616956
H    0.975672  1.169074  -1.153547
Sr    2.739426  1.047663  3.549396
