25
Energy: -100717.434479 eV PBE+vdW (tier 2 basis)
N    -0.828562  0.656822  0.030817
C    -0.556007  0.095781  1.403059
C    0.947847  0.320541  1.737767
O    1.444702  1.424929  1.264098
H    -0.564625  -0.058846  -0.657732
H    -1.844083  0.740481  -0.083395
H    -1.112731  0.739536  2.105780
C    -1.011480  -1.357549  1.590322
C    -1.207331  -1.731366  3.076019
C    -0.941243  -3.203958  3.426970
C    0.475544  -3.713371  3.170525
N    1.520755  -2.820155  3.803986
H    -0.272588  -2.013742  1.104929
H    -1.958740  -1.514569  1.054258
H    -2.239044  -1.497288  3.371862
H    -0.579586  -1.085226  3.708154
H    -1.615983  -3.862967  2.860557
H    -1.196450  -3.364229  4.485671
H    0.726763  -3.748522  2.103480
H    0.606934  -4.721871  3.579016
H    1.340131  -2.681179  4.806001
H    2.460072  -3.226515  3.716952
O    1.589149  -0.486814  2.412223
H    1.527781  -1.874963  3.318927
Sr    0.679734  2.774080  -0.287549
