25
Energy: -100716.34976 eV PBE+vdW (tier 2 basis)
N    -0.358884  0.764378  0.968781
C    -0.638339  0.016639  2.264740
C    0.701839  -0.235760  2.960594
O    0.721699  -0.958709  4.004540
H    -0.197859  0.077771  0.205653
H    -1.144802  1.370006  0.701284
H    -1.184122  0.720360  2.913100
C    -1.507190  -1.228510  2.030131
C    -0.861462  -2.400562  1.275750
C    -0.345817  -2.099729  -0.138308
C    0.028611  -3.352676  -0.949086
N    0.666027  -2.960677  -2.201876
H    -2.423689  -0.897521  1.515433
H    -1.834832  -1.562764  3.023927
H    -1.625452  -3.189467  1.215152
H    -0.049122  -2.831703  1.882545
H    0.583643  -1.494528  -0.122136
H    -1.108121  -1.540997  -0.714590
H    -0.874775  -3.980229  -1.065027
H    0.748385  -3.947319  -0.367028
H    1.229240  -3.720667  -2.580558
H    -0.024262  -2.732781  -2.917917
O    1.761385  0.327450  2.506315
H    0.500839  1.328343  1.068133
Sr    3.017946  -0.578362  4.339664
