25
Energy: -100716.321022 eV PBE+vdW (tier 2 basis)
N    1.002439  0.100769  0.299534
C    0.088772  0.156557  1.515919
C    0.983996  0.288463  2.751860
O    0.444118  0.284474  3.900602
H    1.046139  -0.874959  -0.050492
H    0.671540  0.697463  -0.468125
H    -0.488765  1.090922  1.447685
C    -0.848850  -1.056196  1.564019
C    -0.123797  -2.413644  1.486674
C    -0.019128  -3.039623  0.081959
C    -1.349718  -3.672404  -0.381179
N    -1.785422  -4.670935  0.589529
H    -1.590307  -0.956452  0.757388
H    -1.416357  -0.960333  2.498942
H    -0.687599  -3.146237  2.083339
H    0.872349  -2.345549  1.959914
H    0.755489  -3.820487  0.100616
H    0.301348  -2.332254  -0.711931
H    -1.212064  -4.057203  -1.406529
H    -2.130301  -2.898923  -0.448526
H    -2.786514  -4.844425  0.521827
H    -1.320091  -5.566153  0.439919
O    2.251606  0.430512  2.600386
H    1.954158  0.393362  0.586821
Sr    2.495759  0.605343  4.989477
