25
Energy: -100717.075644 eV PBE+vdW (tier 2 basis)
N    -0.565764  -0.393520  3.543650
C    -0.000631  -0.753599  2.242572
C    1.219919  0.159882  2.125893
O    2.391949  -0.319632  2.337717
H    -3.594125  -2.289046  -3.266300
H    -0.993686  -1.177810  4.027937
H    0.395474  -1.774935  2.324579
C    -0.942285  -0.657798  1.021288
C    -2.103185  -1.655817  1.123724
C    -3.191451  -1.536995  0.040192
C    -2.723180  -1.981447  -1.339885
N    -3.887235  -1.986936  -2.326578
H    -0.346756  -0.835936  0.110518
H    -1.325974  0.372823  0.950136
H    -2.608355  -1.516514  2.090027
H    -1.713313  -2.686630  1.135742
H    -3.558533  -0.498516  -0.006573
H    -4.044887  -2.164187  0.345641
H    -2.330157  -3.006063  -1.333216
H    -1.965164  -1.318229  -1.773289
H    -4.633744  -2.624304  -2.013559
H    -4.305937  -1.050234  -2.416019
O    1.059718  1.423538  1.940083
H    -1.223124  0.382787  3.492129
Sr    3.203427  1.796120  2.744590
