25
Energy: -100717.132212 eV PBE+vdW (tier 2 basis)
N    -0.878101  -0.762472  1.121043
C    0.450152  -0.507627  1.655075
C    1.597130  -0.551614  0.636630
O    2.707059  0.039191  0.909960
H    -2.864736  0.736183  5.907733
H    -1.082693  -0.150606  0.330340
H    0.470337  0.515590  2.066160
C    0.817652  -1.501854  2.787680
C    -0.265348  -1.776124  3.842791
C    -0.819700  -0.554628  4.615610
C    -2.186468  -0.136919  4.089588
N    -2.769780  1.005786  4.917935
H    1.731436  -1.133842  3.274936
H    1.076315  -2.471937  2.333827
H    0.177396  -2.469585  4.569378
H    -1.099888  -2.325863  3.385316
H    -0.113968  0.290451  4.563305
H    -0.909412  -0.818606  5.680681
H    -2.913687  -0.955038  4.163784
H    -2.151365  0.193695  3.043760
H    -3.702320  1.282056  4.580927
H    -2.167290  1.839507  4.887291
O    1.457491  -1.191258  -0.468645
H    -0.957179  -1.717979  0.767845
Sr    3.636968  -0.677510  -1.088951
