25
Energy: -100716.328285 eV PBE+vdW (tier 2 basis)
N    -0.177710  1.005280  0.888523
C    0.368411  0.263721  2.097555
C    1.852452  0.009912  1.866658
O    2.558053  -0.414950  2.833582
H    -1.145173  0.696046  0.700257
H    -0.191882  2.024359  1.022304
H    0.240742  0.917078  2.970227
C    -0.407357  -1.053207  2.309316
C    -1.929026  -0.859187  2.411800
C    -2.382633  0.163985  3.454384
C    -3.908902  0.233909  3.615572
N    -4.265901  1.361630  4.468556
H    -0.017228  -1.487049  3.240346
H    -0.162392  -1.758951  1.499468
H    -2.357955  -1.847299  2.636205
H    -2.362599  -0.612925  1.420824
H    -2.050448  1.187423  3.201874
H    -1.922386  -0.072446  4.428416
H    -4.277179  -0.748580  3.969423
H    -4.367588  0.399332  2.628490
H    -5.246393  1.614322  4.355467
H    -4.131571  1.145074  5.456387
O    2.346574  0.196001  0.695894
H    0.427751  0.797037  0.074615
Sr    4.492484  -0.541855  1.506363
