25
Energy: -100715.864825 eV PBE+vdW (tier 2 basis)
N    0.125623  -0.094981  0.239394
C    0.053001  -0.092549  1.740306
C    1.460701  0.023271  2.286032
O    2.443879  -0.371400  1.614153
H    -0.734636  -0.545767  -0.093689
H    0.046878  0.873475  -0.093652
H    -0.562338  0.750434  2.093629
C    -0.588296  -1.411399  2.234193
C    -0.901996  -1.475935  3.737095
C    -1.873464  -2.616754  4.093297
C    -3.311668  -2.419118  3.603416
N    -3.418540  -2.479712  2.128505
H    0.054721  -2.263494  1.946122
H    -1.557176  -1.535960  1.703110
H    -1.364010  -0.522452  4.051686
H    0.019276  -1.600268  4.327296
H    -1.895639  -2.712870  5.187690
H    -1.477194  -3.575695  3.719823
H    -3.673019  -1.430476  3.923446
H    -3.956631  -3.160957  4.102536
H    -3.394593  -3.454083  1.819941
H    -4.327348  -2.121182  1.831436
O    1.687784  0.455180  3.497679
H    0.876977  0.740459  3.966271
Sr    2.395094  -1.120222  -0.539639
