25
Energy: -100717.061365 eV PBE+vdW (tier 2 basis)
N    -0.089387  0.797079  1.392696
C    -0.398082  0.011801  2.624932
C    0.871940  -0.043309  3.472791
O    1.989149  0.057795  2.944576
H    -0.862349  0.658894  0.734278
H    -0.134571  1.795856  1.626676
H    -1.202084  0.498666  3.200622
C    -0.869870  -1.424844  2.279332
C    0.165746  -2.409477  1.677699
C    -0.149360  -2.947106  0.273826
C    0.019854  -1.990961  -0.901926
N    1.456029  -1.568679  -1.096469
H    -1.736055  -1.314481  1.608324
H    -1.285252  -1.857053  3.199363
H    0.247642  -3.272267  2.351132
H    1.190049  -1.990376  1.709122
H    -1.185103  -3.317307  0.255674
H    0.470689  -3.839463  0.091952
H    -0.581942  -1.077794  -0.779157
H    -0.347541  -2.480337  -1.814366
H    1.532864  -1.199798  -2.052208
H    2.018281  -2.428399  -1.135245
O    0.803651  -0.264274  4.763330
H    -0.109858  -0.289680  5.111860
Sr    2.359084  0.188069  0.596320
