25
Energy: -100715.128367 eV PBE+vdW (tier 2 basis)
N    0.006308  -0.797963  0.625517
C    0.012204  -0.222458  1.970087
C    1.516106  -0.094474  2.105376
O    2.156706  0.938178  1.704612
H    -0.389124  -1.772789  0.563101
H    -0.411228  -0.186976  -0.070991
H    -0.401887  0.795774  1.976457
C    -0.682675  -1.051110  3.057427
C    -0.298538  -2.553919  3.130813
C    -1.488546  -3.523435  3.000104
C    -2.279145  -3.384576  1.696372
N    -1.387362  -3.371301  0.515693
H    -1.759285  -0.953310  2.860114
H    -0.519584  -0.565363  4.030511
H    0.209796  -2.768410  4.083140
H    0.396168  -2.831658  2.314665
H    -2.176937  -3.382440  3.846049
H    -1.104832  -4.550876  3.090827
H    -2.845959  -2.441253  1.685008
H    -3.028632  -4.190676  1.655769
H    -1.950136  -3.326499  -0.336360
H    -0.873246  -4.254148  0.452583
O    2.263203  -1.065058  2.571130
H    1.697585  -1.823865  2.859406
Sr    3.820390  2.184490  1.073367
