25
Energy: -100716.26335 eV PBE+vdW (tier 2 basis)
N    -1.201278  -0.045347  0.298522
C    -0.019608  0.193991  1.177762
C    1.262904  0.112683  0.356419
O    1.231539  0.106870  -0.892317
H    -1.540495  -0.995043  0.498538
H    -1.964810  0.596842  0.733412
H    -0.079139  1.253712  1.492935
C    0.011117  -0.678186  2.452268
C    -1.288191  -0.674159  3.274728
C    -1.787090  0.696404  3.788827
C    -3.074063  1.211205  3.141975
N    -2.885647  1.684478  1.735464
H    0.825308  -0.319581  3.106280
H    0.264943  -1.714904  2.177613
H    -1.103554  -1.339942  4.127789
H    -2.091332  -1.172316  2.708030
H    -0.997998  1.464824  3.715810
H    -1.988294  0.612980  4.865028
H    -3.495454  2.015736  3.762070
H    -3.820463  0.405195  3.119101
H    -2.453796  2.612947  1.766473
H    -3.810426  1.848172  1.328053
O    2.435635  0.085711  0.931384
H    2.379226  0.054389  1.908610
Sr    -0.667095  0.135069  -2.181807
