25
Energy: -100717.219546 eV PBE+vdW (tier 2 basis)
N    -0.813761  0.535864  0.098700
C    -0.353619  0.007339  1.382217
C    1.082790  0.390709  1.759346
O    1.890104  0.848689  0.871227
H    -4.363564  -0.561830  -1.255970
H    -0.957224  1.545182  0.155811
H    -0.979571  0.431925  2.183781
C    -0.497940  -1.535074  1.428654
C    -1.903154  -2.046824  1.791653
C    -3.096065  -1.577185  0.938289
C    -2.996963  -2.003568  -0.517022
N    -4.249726  -1.584995  -1.278094
H    0.187900  -1.942485  2.183935
H    -0.159583  -1.935881  0.459753
H    -2.121065  -1.761169  2.830862
H    -1.873336  -3.147263  1.790258
H    -3.185198  -0.481198  0.984160
H    -4.010252  -2.000276  1.385726
H    -2.915679  -3.091166  -0.637187
H    -2.160581  -1.509972  -1.025495
H    -4.216324  -1.875280  -2.264952
H    -5.095775  -1.997115  -0.859593
O    1.472956  0.242358  2.976124
H    -0.086453  0.401884  -0.607833
Sr    3.562082  1.096333  2.479649
