25
Energy: -100717.046089 eV PBE+vdW (tier 2 basis)
N    -0.653215  -3.065956  1.539055
C    -0.503862  -1.911418  0.647675
C    0.856620  -1.970769  -0.042867
O    1.920581  -1.471624  0.491992
H    0.156519  -3.215374  2.140030
H    -0.837351  -3.925491  1.024201
H    -1.236688  -2.039961  -0.159684
C    -0.838242  -0.585542  1.360717
C    -0.243281  -0.384503  2.760456
C    -0.894534  0.815907  3.470036
C    -0.405722  0.959245  4.904039
N    -1.122140  2.103585  5.616418
H    -1.935273  -0.571652  1.446594
H    -0.566960  0.256107  0.704713
H    0.846483  -0.246481  2.704974
H    -0.431118  -1.288814  3.359205
H    -1.988810  0.677449  3.468713
H    -0.687676  1.742697  2.909645
H    0.665483  1.187815  4.965672
H    -0.606132  0.061690  5.502478
H    -0.800982  2.211041  6.588854
H    -0.964909  3.000182  5.134984
O    0.944581  -2.606947  -1.161816
H    -2.139626  1.945144  5.640523
Sr    3.202255  -2.261332  -1.294603
