25
Energy: -100715.690628 eV PBE+vdW (tier 2 basis)
N    0.943747  0.160635  0.208017
C    1.326775  -0.744772  1.345210
C    2.413837  -1.695981  0.856566
O    3.034908  -1.477701  -0.206491
H    0.080210  -0.220775  -0.201401
H    0.633880  1.047659  0.620270
H    1.822075  -0.112080  2.104686
C    0.124446  -1.445865  2.011013
C    -0.929316  -0.485657  2.578120
C    -0.412467  0.509389  3.621367
C    -1.566499  1.106528  4.455677
N    -2.262623  0.049186  5.178938
H    0.495987  -2.059398  2.851444
H    -0.331534  -2.146324  1.291385
H    -1.701537  -1.100392  3.065052
H    -1.449372  0.045474  1.762569
H    0.152244  1.342401  3.164209
H    0.282724  0.000962  4.311935
H    -2.282833  1.596954  3.780415
H    -1.157077  1.897778  5.106583
H    -1.838934  -0.145116  6.084890
H    -3.243302  0.268164  5.338465
O    2.756684  -2.740431  1.556378
H    2.196438  -2.865719  2.351160
Sr    2.775884  0.262696  -1.666297
