25
Energy: -100716.248609 eV PBE+vdW (tier 2 basis)
N    0.280669  -0.982783  0.471580
C    0.332844  -0.179432  1.722329
C    1.790692  0.136843  2.054517
O    2.712417  -0.592325  1.640584
H    -0.605510  -1.590229  0.496523
H    0.156129  -0.344681  -0.321026
H    -0.211490  0.770899  1.598581
C    -0.313811  -0.930103  2.918589
C    0.190912  -2.365695  3.211026
C    -0.772359  -3.529684  2.926745
C    -1.039570  -3.914911  1.472070
N    -1.775230  -2.883479  0.713126
H    -1.396454  -0.939297  2.738977
H    -0.177230  -0.306496  3.812651
H    0.463530  -2.419018  4.273166
H    1.166084  -2.562147  2.708578
H    -1.734355  -3.323554  3.423835
H    -0.380222  -4.423752  3.432282
H    -1.545831  -4.892520  1.449517
H    -0.068602  -4.095509  0.948779
H    -2.104593  -3.267030  -0.176557
H    -2.627179  -2.629221  1.220228
O    2.105872  1.144521  2.827858
H    1.340184  1.695097  3.088303
Sr    2.356756  -2.442235  0.291104
