25
Energy: -100715.553884 eV PBE+vdW (tier 2 basis)
N    -0.141670  -0.129738  0.058950
C    0.343512  -0.087921  1.479933
C    1.870314  -0.189757  1.458354
O    2.512701  0.034124  0.412438
H    -0.391825  -1.105668  -0.149266
H    -1.043051  0.358290  0.027426
H    0.139409  0.932997  1.853216
C    -0.353097  -1.091267  2.417819
C    -1.875421  -0.887168  2.512048
C    -2.528915  -1.683079  3.650555
C    -2.509621  -3.207051  3.471270
N    -3.146207  -3.847908  4.605245
H    0.054959  -0.967728  3.437350
H    -0.103532  -2.118396  2.105866
H    -2.355190  -1.163609  1.557786
H    -2.080543  0.184361  2.670835
H    -3.574343  -1.350190  3.734581
H    -2.054199  -1.429800  4.611000
H    -1.473555  -3.579378  3.429550
H    -2.973343  -3.459663  2.492646
H    -4.144281  -3.657190  4.677758
H    -2.993794  -4.852745  4.647157
O    2.541863  -0.464838  2.541446
H    1.963951  -0.660343  3.308573
Sr    1.713527  0.619191  -1.664423
