25
Energy: -100717.311482 eV PBE+vdW (tier 2 basis)
N    -0.573791  0.365302  -0.006431
C    -0.167438  -0.316380  1.277540
C    1.380394  -0.386533  1.349378
O    2.011073  0.534099  0.684412
H    -0.653777  -0.364160  -0.725827
H    -1.536745  0.699752  0.103323
H    -0.450040  0.381645  2.084465
C    -0.879552  -1.669286  1.511071
C    -1.535896  -1.856016  2.891133
C    -0.629106  -2.057966  4.117273
C    0.168612  -3.374253  4.124908
N    1.643847  -3.134207  3.896451
H    -0.179696  -2.488090  1.286861
H    -1.685047  -1.760054  0.767172
H    -2.214743  -2.719207  2.822531
H    -2.190114  -0.993419  3.092152
H    -1.271750  -2.047226  5.006911
H    0.056084  -1.205253  4.250128
H    -0.160606  -4.056333  3.331382
H    0.074393  -3.906563  5.077288
H    2.082178  -2.720757  4.728339
H    2.147382  -4.005284  3.690898
O    1.943812  -1.242593  2.033326
H    1.776599  -2.445331  3.096292
Sr    1.296931  2.031114  -0.749974
