25
Energy: -100717.273378 eV PBE+vdW (tier 2 basis)
N    -1.167571  1.114107  0.669155
C    -0.837829  0.057889  1.696410
C    0.606182  0.242405  2.214628
O    1.418719  0.877961  1.421910
H    -1.859146  0.721641  0.020786
H    -1.683599  1.861483  1.146347
H    -1.508356  0.173213  2.560214
C    -1.067393  -1.348650  1.099993
C    -0.923870  -2.511402  2.103082
C    0.494694  -3.112786  2.207394
C    0.849419  -3.682413  3.575502
N    0.900647  -2.584958  4.639477
H    -0.398809  -1.508221  0.237233
H    -2.094512  -1.358737  0.703949
H    -1.622002  -3.306975  1.812973
H    -1.282324  -2.160558  3.083654
H    1.263781  -2.378609  1.928795
H    0.599580  -3.935948  1.486861
H    1.839034  -4.151027  3.556425
H    0.127322  -4.432970  3.917627
H    0.088534  -2.621725  5.264333
H    1.734628  -2.675193  5.230071
O    0.930856  -0.224901  3.308993
H    0.912331  -1.625566  4.185203
Sr    1.015685  2.126937  -0.337012
