25
Energy: -100716.970233 eV PBE+vdW (tier 2 basis)
N    -0.638799  0.595671  -0.228970
C    -0.704126  -0.030900  1.141314
C    -0.083759  0.950296  2.181170
O    -0.324377  2.218556  1.910761
H    0.294820  0.403405  -0.612547
H    -1.269626  0.083512  -0.853991
H    -1.776615  -0.087924  1.394440
C    -0.105359  -1.446823  1.171239
C    -0.355712  -2.241687  2.482278
C    0.937099  -2.512840  3.267476
C    0.750691  -3.047586  4.676877
N    0.174803  -4.465779  4.697776
H    0.977847  -1.373118  0.985519
H    -0.524918  -2.007904  0.323994
H    -0.861713  -3.184692  2.219053
H    -1.050748  -1.683475  3.127045
H    1.463457  -1.555872  3.392255
H    1.613121  -3.173152  2.699113
H    0.057545  -2.433228  5.265515
H    1.703490  -3.110829  5.215425
H    0.789658  -5.120583  4.194591
H    0.069122  -4.815717  5.660110
O    0.526575  0.537907  3.149114
H    -0.750318  -4.503779  4.249650
Sr    -0.906153  3.191541  0.071791
