27
Energy: -606756.1234 eV PBE+vdW (tier 2 basis)
C    1.020334  -1.280778  0.196242
C    0.574547  -0.789160  1.534753
O    1.327268  -0.976065  2.534280
H    0.304219  -1.083492  -0.608096
H    1.207560  -2.361459  0.260278
H    1.981523  -0.808510  -0.050539
N    -0.614532  -0.158212  1.600851
C    -1.320459  0.452083  2.744469
C    -0.495997  1.549385  3.444988
O    0.399882  1.287695  4.309937
H    -1.101288  -0.082329  0.711975
H    -2.179902  0.959738  2.285674
C    -1.991133  -0.537872  3.730535
O    -0.965456  -1.346777  4.408239
C    -2.995906  -1.454998  3.058634
H    -2.485345  0.078593  4.499257
H    -1.408397  -2.087728  4.861246
H    -3.469272  -2.113682  3.799897
H    -2.529566  -2.077959  2.285322
H    -3.807149  -0.870021  2.604691
N    -0.771871  2.807045  3.146214
C    -0.082534  3.959217  3.741959
H    -1.507197  2.998415  2.470801
H    0.989284  3.915900  3.515781
H    -0.221568  3.959784  4.829501
H    -0.509931  4.870994  3.317922
Pb    1.343886  -0.724808  4.787189
