27
Energy: -606755.467356 eV PBE+vdW (tier 2 basis)
C    0.740432  -0.840952  3.254261
C    -0.029560  -0.103630  2.214342
O    0.481188  0.045961  1.046106
H    1.732419  -0.386699  3.377192
H    0.907709  -1.867193  2.892868
H    0.231461  -0.883216  4.222723
N    -1.243209  0.360562  2.512690
C    -2.258897  0.889365  1.594521
C    -2.033081  2.393269  1.329045
O    -0.858810  2.790351  0.964093
H    -1.555388  0.220110  3.472534
H    -2.116576  0.399319  0.616203
C    -3.660269  0.449004  2.122339
O    -4.586425  1.089951  1.238268
C    -3.943943  0.769115  3.591280
H    -3.701111  -0.643410  1.975254
H    -5.466455  0.687016  1.332502
H    -3.795110  1.827637  3.841191
H    -3.351467  0.154281  4.285788
H    -4.988767  0.516098  3.813481
N    -3.025509  3.239593  1.435562
C    -2.961109  4.678359  1.179598
H    -3.950518  2.804427  1.575390
H    -3.449980  4.902984  0.222370
H    -1.921259  5.009712  1.155309
H    -3.499151  5.199252  1.979551
Pb    0.817386  1.871729  -0.180462
