27
Energy: -606754.798986 eV PBE+vdW (tier 2 basis)
C    -0.286568  -0.040421  0.023338
C    -0.564165  0.530267  1.380085
O    -0.209481  1.648731  1.755288
H    -0.453153  0.734976  -0.733217
H    -0.887810  -0.925678  -0.211399
H    0.776834  -0.315739  -0.031848
N    -1.277200  -0.257457  2.272824
C    -1.481711  0.227743  3.623654
C    -1.905296  1.706868  3.586846
O    -1.441228  2.602600  4.402335
H    -1.584114  -1.192901  2.022676
H    -2.343869  -0.315764  4.044130
C    -0.273618  -0.124040  4.540488
O    -0.634197  0.329284  5.926304
C    1.107358  0.391553  4.178996
H    -0.251556  -1.221222  4.594113
H    -0.374221  -0.352740  6.573487
H    1.141005  1.481358  4.019741
H    1.450679  -0.047544  3.234373
H    1.833327  0.089944  4.945685
N    -2.914348  2.038941  2.810957
C    -3.452638  3.394706  2.667093
H    -3.251238  1.326370  2.166136
H    -3.721202  3.803141  3.646921
H    -4.347459  3.341938  2.042114
H    -2.709312  4.045318  2.188533
Pb    -0.343823  2.658767  6.263344
