27
Energy: -606755.424767 eV PBE+vdW (tier 2 basis)
C    -0.181337  -1.760444  0.529552
C    -0.271056  -0.789229  1.654919
O    0.783230  -0.140998  1.998780
H    0.156010  -1.224535  -0.369661
H    -1.132026  -2.259868  0.317979
H    0.587361  -2.512115  0.755292
N    -1.440932  -0.603548  2.259846
C    -1.773859  0.404994  3.264237
C    -1.249985  -0.022408  4.655067
O    -0.038349  0.326304  4.946708
H    -2.269695  -1.112859  1.930175
H    -1.197860  1.316242  3.046458
C    -3.278465  0.789338  3.088677
O    -3.943156  -0.416446  2.692544
C    -3.443221  1.902692  2.061988
H    -3.658567  1.130915  4.066864
H    -4.817109  -0.203440  2.323789
H    -4.509039  2.125477  1.919054
H    -3.020007  1.623730  1.087369
H    -2.970014  2.831886  2.406478
N    -1.915135  -0.694600  5.568428
C    -3.271651  -1.251610  5.596344
H    -1.367986  -0.845679  6.420334
H    -3.210208  -2.260384  6.020025
H    -3.699750  -1.300865  4.593219
H    -3.903582  -0.636100  6.250024
Pb    1.798388  0.767553  3.755512
