27
Energy: -606755.457942 eV PBE+vdW (tier 2 basis)
C    -0.588488  1.504619  0.324240
C    -0.480452  0.693295  1.568948
O    0.487255  -0.132169  1.676680
H    0.371078  1.998619  0.124223
H    -1.389188  2.250507  0.358016
H    -0.775943  0.818525  -0.515589
N    -1.408326  0.854725  2.518828
C    -1.664847  0.049596  3.729309
C    -0.650851  0.362024  4.836994
O    0.544529  -0.089808  4.783581
H    -2.141689  1.520712  2.289572
H    -2.657366  0.376512  4.067245
C    -1.813041  -1.477161  3.457845
O    -2.494591  -1.578002  2.243437
C    -2.467299  -2.195621  4.631341
H    -0.779033  -1.936676  3.336583
H    -2.957639  -2.431957  2.182962
H    -2.538284  -3.272014  4.427283
H    -3.482202  -1.810522  4.800550
H    -1.887225  -2.081446  5.557384
N    -1.048714  1.100550  5.854900
C    -0.223381  1.500539  6.998818
H    -2.011427  1.432229  5.848759
H    -0.750080  1.243115  7.924898
H    -0.059105  2.585008  6.969121
H    0.735014  0.979404  6.957282
Pb    1.592290  -1.318604  3.202791
