27
Energy: -606754.46356 eV PBE+vdW (tier 2 basis)
C    0.101566  0.595469  0.054567
C    -0.159305  0.496899  1.513935
O    0.827284  0.345959  2.324226
H    -0.812060  0.727779  -0.534538
H    0.617388  -0.317516  -0.277311
H    0.786905  1.432769  -0.137858
N    -1.418286  0.554804  1.983340
C    -1.619016  0.408113  3.412034
C    -2.857903  -0.152960  4.124763
O    -2.648751  -0.264248  5.354084
H    -2.173524  0.728544  1.324110
H    -0.898153  -0.386077  3.676380
C    -1.167722  1.688224  4.189107
O    -0.481361  1.150733  5.381314
C    -2.238689  2.694564  4.558962
H    -0.400511  2.210282  3.596048
H    -1.222120  0.513642  5.728984
H    -3.013334  2.265773  5.204219
H    -2.710599  3.080595  3.644267
H    -1.782893  3.545359  5.078278
N    -3.984307  -0.479970  3.503389
C    -5.156774  -1.040146  4.189573
H    -4.045727  -0.379481  2.494954
H    -6.032207  -0.412610  3.988029
H    -4.956377  -1.062051  5.263361
H    -5.345631  -2.057818  3.828181
Pb    1.539107  0.312369  4.499602
