27
Energy: -606754.495112 eV PBE+vdW (tier 2 basis)
C    -0.264258  0.311376  -0.009460
C    -0.262179  0.511964  1.463350
O    0.860219  0.419843  2.094971
H    0.076141  -0.713309  -0.223809
H    0.461227  0.990507  -0.476991
H    -1.251355  0.461092  -0.459196
N    -1.399931  0.750456  2.108623
C    -1.607476  0.719815  3.560949
C    -2.949226  -0.026594  3.904504
O    -2.870294  -1.004977  4.625718
H    -2.244709  0.729803  1.536635
H    -0.860843  0.034763  3.996110
C    -1.501709  2.081436  4.254453
O    -0.043312  2.488511  4.188301
C    -1.947614  2.075023  5.700313
H    -2.023896  2.852613  3.668544
H    0.044128  3.326163  4.685219
H    -1.749729  3.045776  6.175313
H    -1.462539  1.280080  6.281310
H    -3.032683  1.916959  5.758107
N    -4.077374  0.455493  3.331378
C    -5.381596  -0.180719  3.562765
H    -4.085534  1.384987  2.921086
H    -6.047852  0.065821  2.730875
H    -5.827536  0.162225  4.505348
H    -5.241426  -1.264455  3.614138
Pb    1.896351  1.168345  3.857448
