27
Energy: -606754.372871 eV PBE+vdW (tier 2 basis)
C    -0.025056  0.501015  0.047250
C    -0.045637  0.373365  1.528230
O    1.079640  0.267824  2.151596
H    -1.023353  0.630487  -0.383788
H    0.433859  -0.405201  -0.376588
H    0.614426  1.345419  -0.243052
N    -1.203881  0.343072  2.181330
C    -1.394210  0.006036  3.594011
C    -2.549347  -1.037182  3.832124
O    -2.234921  -2.018807  4.486576
H    -2.040226  0.412446  1.603324
H    -0.532666  -0.610847  3.897911
C    -1.464200  1.221381  4.531764
O    -0.042818  1.734595  4.648745
C    -2.000252  0.931268  5.915130
H    -2.009300  2.044395  4.048633
H    -0.045369  2.442325  5.323319
H    -1.925643  1.821033  6.555770
H    -1.486344  0.089321  6.395362
H    -3.068464  0.682880  5.854495
N    -3.785530  -0.807638  3.334853
C    -4.316490  0.339440  2.606740
H    -4.428264  -1.578806  3.513216
H    -5.378897  0.452257  2.848776
H    -4.246408  0.212699  1.513760
H    -3.830196  1.275524  2.907828
Pb    2.013302  0.708102  4.074038
