27
Energy: -606756.124753 eV PBE+vdW (tier 2 basis)
C    -0.161889  -0.896985  -0.282489
C    -0.029595  -0.565451  1.168203
O    1.127954  -0.487466  1.672656
H    0.334800  -1.858277  -0.472830
H    0.380179  -0.140938  -0.867606
H    -1.198372  -0.948591  -0.631421
N    -1.164497  -0.354857  1.864069
C    -1.373118  0.003693  3.280329
C    -0.657956  1.309114  3.685190
O    0.569593  1.333150  4.020136
H    -2.017165  -0.449950  1.319387
H    -2.450191  0.209810  3.346604
C    -1.178451  -1.146249  4.301262
O    0.221065  -1.600374  4.285914
C    -2.094781  -2.328059  4.044317
H    -1.375115  -0.714736  5.296388
H    0.274977  -2.447267  4.765802
H    -1.944123  -3.103249  4.808427
H    -1.922548  -2.773554  3.056612
H    -3.147080  -2.022599  4.119795
N    -1.387637  2.411900  3.709672
C    -0.902470  3.745135  4.078659
H    -2.371949  2.339665  3.461385
H    -1.456088  4.101850  4.955588
H    -1.070562  4.434709  3.242779
H    0.162906  3.692250  4.310286
Pb    2.149116  -0.264673  3.684886
