27
Energy: -606754.883094 eV PBE+vdW (tier 2 basis)
C    -0.830164  -0.840622  0.036315
C    -0.865384  0.156360  1.153168
O    -0.556524  1.346527  0.986735
H    -1.142712  -1.850403  0.322023
H    0.194432  -0.879725  -0.358763
H    -1.466984  -0.476803  -0.780553
N    -1.275584  -0.314223  2.381310
C    -1.248170  0.343779  3.686208
C    -1.864713  1.741156  3.816330
O    -2.314483  2.077267  5.002277
H    -1.574704  -1.284467  2.407021
H    -1.883837  -0.287179  4.325465
C    0.183154  0.288618  4.308112
O    0.004237  0.425943  5.803088
C    1.188180  1.301091  3.815531
H    0.540143  -0.740856  4.165141
H    0.827618  0.129124  6.236354
H    0.862206  2.333109  4.002076
H    1.331460  1.187713  2.732894
H    2.165985  1.147115  4.290289
N    -1.919751  2.560711  2.813513
C    -2.503759  3.898635  2.820435
H    -1.391884  2.200968  1.943433
H    -3.156557  3.992753  1.944616
H    -1.702425  4.644245  2.730815
H    -3.076445  4.070312  3.734620
Pb    -1.642338  1.618852  7.005547
