32
Energy: -606846.035315 eV PBE+vdW (tier 2 basis)
C    -0.198607  -0.166644  -0.127567
C    -0.388457  -0.257188  1.346880
O    0.645444  -0.365893  2.098401
H    0.410428  0.722760  -0.347117
H    -1.141138  -0.100650  -0.680818
H    0.373869  -1.036002  -0.477886
N    -1.620397  -0.195682  1.854083
C    -1.979553  -0.091291  3.280436
C    -1.885125  -1.492564  3.917337
O    -0.761408  -1.877315  4.417241
H    -2.383879  -0.095045  1.186684
H    -1.182613  0.493817  3.766753
C    -3.278314  0.748744  3.441163
C    -3.430392  1.297866  4.878977
C    -4.575068  0.120938  2.899251
C    -3.610632  0.282979  6.010247
H    -3.066555  1.628596  2.810062
H    -4.296003  1.975548  4.862688
H    -2.564598  1.942269  5.098982
H    -4.461049  -0.405535  1.938253
H    -5.309208  0.916173  2.721711
H    -5.062107  -0.559219  3.614644
H    -3.804571  0.810737  6.951537
H    -2.715737  -0.334197  6.182253
H    -4.463856  -0.389780  5.848314
N    -2.923692  -2.294465  3.921424
C    -2.970155  -3.648129  4.477536
H    -3.797788  -1.903314  3.569241
H    -3.464888  -4.311254  3.759208
H    -3.547000  -3.638065  5.411713
H    -1.957115  -4.001253  4.678441
Pb    1.342165  -1.233945  4.027930
