32
Energy: -606844.543671 eV PBE+vdW (tier 2 basis)
C    -0.064502  0.430014  0.046126
C    -0.275865  -0.007099  1.450035
O    0.769871  -0.409656  2.138465
H    0.650879  1.263946  0.021038
H    -0.999306  0.737180  -0.433129
H    0.381907  -0.395940  -0.526251
N    -1.464575  -0.012765  1.987866
C    -1.856242  -0.437334  3.328373
C    -3.414937  -0.467068  3.194294
O    -3.902856  0.143490  2.236470
H    -2.335950  0.298296  1.482979
H    -1.474880  -1.455083  3.503018
C    -1.288395  0.555555  4.414107
C    -0.427012  -0.164662  5.467377
C    -2.347556  1.458469  5.064262
C    0.665930  0.708670  6.085268
H    -0.619645  1.232015  3.854339
H    -0.001032  -1.112984  5.018314
H    -1.042134  -0.597082  6.272321
H    -2.931919  1.988046  4.301686
H    -1.871487  2.222822  5.690725
H    -3.041867  0.894160  5.698167
H    1.300196  0.170119  6.802364
H    0.233820  1.566883  6.619569
H    1.318810  1.216168  5.329237
N    -4.141838  -1.146712  4.091000
C    -3.695285  -1.933250  5.232955
H    -5.146251  -1.087198  3.927685
H    -4.408830  -2.746715  5.400023
H    -3.641832  -1.332906  6.152635
H    -2.719433  -2.393822  5.038908
Pb    2.040526  -0.717624  3.814313
