32
Energy: -606845.964347 eV PBE+vdW (tier 2 basis)
C    0.665143  1.850532  1.720576
C    0.250385  0.880327  2.778421
O    1.044499  0.686584  3.755343
H    -0.069940  1.965671  0.917419
H    1.621925  1.520597  1.292306
H    0.848078  2.828506  2.186859
N    -0.928680  0.265953  2.636764
C    -1.672539  -0.739004  3.439705
C    -1.897897  -0.311913  4.895563
O    -0.958722  -0.232567  5.758781
H    -1.420418  0.532598  1.787640
H    -2.664659  -0.704560  2.969818
C    -1.270006  -2.247106  3.268270
C    -0.030111  -2.821489  3.994264
C    -1.275948  -2.609857  1.776509
C    1.361341  -2.616624  3.376192
H    -2.129346  -2.760827  3.731769
H    -0.192595  -3.908487  4.055097
H    -0.071969  -2.543135  5.072058
H    -1.116898  -3.687835  1.648908
H    -0.488908  -2.091009  1.214061
H    -2.241161  -2.371905  1.309672
H    2.139052  -3.084481  3.997322
H    1.642138  -1.568793  3.176765
H    1.432282  -3.109470  2.397949
N    -3.146311  -0.080488  5.264466
C    -3.582290  0.264479  6.620386
H    -3.869501  -0.129609  4.550436
H    -4.517082  -0.264348  6.833732
H    -3.755784  1.345982  6.692974
H    -2.814173  -0.032077  7.338125
Pb    1.274907  -0.474033  5.646014
