32
Energy: -606845.436839 eV PBE+vdW (tier 2 basis)
C    -0.105652  0.252717  -0.481816
C    -0.133317  -0.075263  0.964738
O    0.959912  -0.322267  1.590828
H    0.381774  1.226002  -0.644291
H    -1.094501  0.243190  -0.948434
H    0.537991  -0.489801  -0.977727
N    -1.283687  -0.117135  1.665151
C    -2.340538  0.893632  1.595020
C    -1.709545  2.250160  1.957842
O    -0.601065  2.310349  2.612252
H    -1.216626  -0.594199  2.564669
H    -2.729351  0.937499  0.567649
C    -3.517653  0.526566  2.552283
C    -3.220027  0.719023  4.061065
C    -4.073068  -0.859549  2.202461
C    -2.166994  -0.166646  4.734855
H    -4.304660  1.258786  2.316726
H    -4.171990  0.532095  4.579942
H    -2.993873  1.776738  4.267273
H    -3.365043  -1.675597  2.401109
H    -4.360532  -0.924354  1.145141
H    -4.970250  -1.058239  2.801419
H    -2.223478  -0.077772  5.826620
H    -1.121202  0.138633  4.485684
H    -2.263737  -1.234513  4.493518
N    -2.298783  3.381295  1.622988
C    -3.552190  3.598189  0.893275
H    -1.815570  4.221720  1.946470
H    -3.421232  4.461423  0.232340
H    -4.368924  3.809505  1.595259
H    -3.810824  2.727803  0.284064
Pb    1.112377  1.045297  3.413043
