32
Energy: -606845.909546 eV PBE+vdW (tier 2 basis)
C    -0.147428  1.441613  0.195539
C    -0.757810  0.917143  1.447986
O    -1.148939  1.745548  2.344893
H    -0.879830  2.089646  -0.307783
H    0.165878  0.650354  -0.493277
H    0.715326  2.074169  0.444962
N    -0.907008  -0.399714  1.604097
C    -1.626642  -1.039969  2.712392
C    -0.772302  -0.924346  3.995132
O    -1.116303  -0.042104  4.872605
H    -0.639995  -0.991858  0.819656
H    -2.514288  -0.420085  2.924235
C    -2.162585  -2.451035  2.362137
C    -3.274066  -2.404564  1.286162
C    -2.700960  -3.123973  3.634141
C    -2.880621  -2.015164  -0.142229
H    -1.330396  -3.053962  1.962834
H    -4.093416  -1.759693  1.644625
H    -3.697159  -3.418689  1.260472
H    -3.552215  -2.567235  4.051572
H    -1.950166  -3.235890  4.427748
H    -3.063094  -4.129860  3.393427
H    -3.697263  -2.259819  -0.832032
H    -2.001440  -2.576661  -0.495027
H    -2.692227  -0.940202  -0.269254
N    0.299525  -1.649825  4.239853
C    0.907451  -2.736523  3.465267
H    0.741338  -1.440275  5.137448
H    0.415123  -3.692409  3.684420
H    1.959117  -2.806631  3.758766
H    0.861707  -2.529935  2.392717
Pb    -1.765531  2.059156  4.472427
