32
Energy: -606846.071737 eV PBE+vdW (tier 2 basis)
C    -0.628322  -1.938716  0.209983
C    -0.684429  -1.086996  1.430444
O    0.116045  -0.087682  1.524478
H    0.385570  -2.344605  0.091622
H    -0.819764  -1.304867  -0.668132
H    -1.351409  -2.760670  0.226010
N    -1.575546  -1.366321  2.380220
C    -1.902825  -0.536981  3.551824
C    -0.830492  -0.772948  4.637006
O    0.254580  -0.082638  4.619442
H    -2.208959  -2.144788  2.195587
H    -1.788151  0.516849  3.246040
C    -3.369751  -0.720791  4.005178
C    -4.370033  -0.616662  2.821024
C    -3.690518  0.320823  5.087916
C    -4.744001  -1.932511  2.131323
H    -3.487853  -1.735066  4.433511
H    -4.005096  0.121817  2.088244
H    -5.293080  -0.181483  3.226676
H    -3.706843  1.333473  4.660478
H    -2.981142  0.318958  5.926986
H    -4.685062  0.128796  5.506533
H    -3.928559  -2.402952  1.556472
H    -5.548580  -1.763885  1.405243
H    -5.109223  -2.674762  2.853716
N    -1.025896  -1.687954  5.558763
C    -0.101508  -2.051659  6.635648
H    -1.928359  -2.162330  5.544379
H    -0.605916  -1.917115  7.600002
H    0.783695  -1.414890  6.589568
H    0.186755  -3.104448  6.527469
Pb    1.255672  1.109007  3.011345
