32
Energy: -606845.361714 eV PBE+vdW (tier 2 basis)
C    1.558500  0.839345  1.998219
C    0.941768  2.113307  2.444481
O    1.660075  3.178902  2.528023
H    1.857190  0.903438  0.940844
H    0.916250  -0.031316  2.156327
H    2.493474  0.709550  2.564783
N    -0.360923  2.198517  2.759405
C    -1.450823  1.625799  1.961857
C    -1.309960  2.256922  0.557595
O    -0.757205  3.411462  0.403085
H    -0.628249  3.024178  3.298688
H    -1.321657  0.536127  1.875187
C    -2.820222  1.911623  2.658556
C    -3.022535  1.017746  3.904578
C    -4.011261  1.754127  1.705564
C    -2.044014  1.165093  5.071235
H    -2.787427  2.970506  2.980920
H    -3.061899  -0.033696  3.575603
H    -4.034377  1.246073  4.268939
H    -4.937617  1.944139  2.259921
H    -4.091784  0.729014  1.312924
H    -3.996130  2.458672  0.864530
H    -2.410596  0.592067  5.931493
H    -1.957387  2.209681  5.407105
H    -1.038747  0.783273  4.850181
N    -1.769475  1.589336  -0.478922
C    -1.798320  2.041766  -1.871951
H    -2.220111  0.695918  -0.284131
H    -1.331900  1.280499  -2.507858
H    -1.260893  2.987108  -1.962928
H    -2.840599  2.179895  -2.186636
Pb    0.806754  4.831863  1.233407
