32
Energy: -606844.350361 eV PBE+vdW (tier 2 basis)
C    -1.037634  0.831027  -0.650039
C    -0.684933  0.768233  0.790926
O    0.292512  1.570278  1.214928
H    -1.288363  1.867456  -0.916723
H    -1.877573  0.178880  -0.900742
H    -0.171016  0.533771  -1.257330
N    -1.251387  0.019903  1.685195
C    -2.362054  -0.939542  1.628701
C    -2.971317  -0.704001  3.046906
O    -2.171615  -0.331686  3.927044
H    -1.033536  0.111692  2.718501
H    -3.047811  -0.687982  0.810883
C    -1.815444  -2.405110  1.474280
C    -1.079814  -2.578317  0.131809
C    -2.933308  -3.436151  1.659738
C    -0.415557  -3.947826  -0.041835
H    -1.086828  -2.540390  2.292246
H    -0.293265  -1.811811  0.042735
H    -1.787373  -2.405744  -0.697089
H    -3.411627  -3.365396  2.642937
H    -3.702144  -3.353470  0.879162
H    -2.510415  -4.444389  1.592805
H    0.191915  -3.960838  -0.954826
H    -1.149418  -4.756565  -0.133093
H    0.246509  -4.184478  0.802429
N    -4.274463  -0.881900  3.284632
C    -5.363062  -1.245292  2.383830
H    -4.526178  -0.711828  4.258827
H    -6.187638  -0.533678  2.510359
H    -5.731157  -2.254905  2.607622
H    -5.037729  -1.216988  1.341149
Pb    1.799681  2.852248  1.872989
