32
Energy: -606844.869315 eV PBE+vdW (tier 2 basis)
C    0.088310  -0.409295  0.674544
C    -0.236738  -0.165541  2.101198
O    0.711700  -0.051123  2.963923
H    0.891840  -1.147857  0.572071
H    0.487970  0.540758  0.277127
H    -0.780701  -0.675904  0.067345
N    -1.503159  -0.060266  2.535169
C    -2.603295  -0.978838  2.154440
C    -2.002604  -2.398183  2.360900
O    -1.191639  -2.545703  3.369211
H    -1.598297  0.370751  3.454101
H    -3.305957  -0.893990  3.001970
C    -3.428691  -0.581566  0.896644
C    -3.449503  0.953750  0.689165
C    -4.853534  -1.144153  1.022450
C    -4.082471  1.799216  1.796320
H    -2.941443  -0.998281  0.001831
H    -4.001654  1.122927  -0.246752
H    -2.428110  1.309937  0.489225
H    -5.399223  -1.007540  0.081336
H    -5.410952  -0.616685  1.806918
H    -4.892707  -2.211346  1.270560
H    -4.020811  2.861356  1.530921
H    -3.580041  1.695118  2.770985
H    -5.144277  1.571297  1.946671
N    -2.243758  -3.491043  1.664117
C    -3.017603  -3.808748  0.456791
H    -1.782879  -4.305112  2.078438
H    -2.428903  -4.525644  -0.126427
H    -3.206029  -2.924924  -0.148308
H    -3.966935  -4.281865  0.737958
Pb    0.525805  -1.669438  4.542791
