32
Energy: -606845.777559 eV PBE+vdW (tier 2 basis)
C    1.061458  0.716141  0.535560
C    0.541049  -0.434929  1.322189
O    1.358466  -1.152593  1.998297
H    1.838100  0.363082  -0.156520
H    1.548334  1.423165  1.222946
H    0.281006  1.239970  -0.025999
N    -0.770951  -0.699103  1.326219
C    -1.368719  -1.727162  2.174557
C    -1.012938  -3.141794  1.658890
O    -0.216136  -3.841991  2.400645
H    -1.386663  -0.068535  0.815391
H    -0.816958  -1.682154  3.126636
C    -2.829944  -1.422350  2.606910
C    -3.293031  -2.456200  3.656933
C    -3.874911  -1.243670  1.503321
C    -2.481142  -2.506064  4.952689
H    -2.725673  -0.452557  3.125847
H    -3.345634  -3.456878  3.195560
H    -4.332875  -2.202162  3.906185
H    -4.195009  -2.198358  1.070314
H    -3.561071  -0.575407  0.686931
H    -4.767063  -0.779675  1.941742
H    -1.468376  -2.920594  4.815118
H    -2.971715  -3.158361  5.684867
H    -2.389521  -1.512935  5.414384
N    -1.415967  -3.684450  0.529366
C    -2.228220  -3.166263  -0.572120
H    -1.056810  -4.632861  0.393004
H    -3.208926  -3.656992  -0.580664
H    -2.362407  -2.088175  -0.490236
H    -1.711725  -3.397309  -1.511171
Pb    1.648910  -2.982307  3.288640
