32
Energy: -606846.068657 eV PBE+vdW (tier 2 basis)
C    0.026229  2.588557  1.314560
C    -0.363550  1.927510  2.591384
O    0.229388  2.278220  3.673888
H    -0.143278  3.670586  1.416557
H    -0.532084  2.217528  0.448904
H    1.102626  2.452744  1.143428
N    -1.329922  1.010334  2.580894
C    -1.996125  0.396637  3.738026
C    -1.145858  -0.766118  4.288937
O    -0.121347  -0.493384  5.022150
H    -1.764554  0.817889  1.678919
H    -1.967480  1.142340  4.549811
C    -3.509124  0.142491  3.435456
C    -3.864310  -0.308775  1.999633
C    -4.289219  1.421341  3.785234
C    -3.314879  -1.641509  1.485321
H    -3.832224  -0.645320  4.135943
H    -3.633073  0.499593  1.281833
H    -4.961674  -0.358252  1.972657
H    -4.151876  1.708838  4.836080
H    -5.363023  1.268696  3.627307
H    -3.984490  2.267149  3.151714
H    -3.720085  -1.858338  0.489276
H    -3.635083  -2.487016  2.117799
H    -2.218935  -1.666026  1.377403
N    -1.471038  -2.013438  4.049812
C    -0.760174  -3.201246  4.527526
H    -2.281293  -2.169988  3.447259
H    -0.028690  -2.913938  5.285117
H    -0.251824  -3.689090  3.685856
H    -1.488829  -3.898659  4.956035
Pb    0.955800  1.383643  5.574280
