32
Energy: -606845.422933 eV PBE+vdW (tier 2 basis)
C    -1.335821  1.505171  0.235744
C    -0.691997  0.727884  1.323542
O    0.140661  1.306550  2.117864
H    -1.998358  2.279293  0.650900
H    -1.881443  0.881817  -0.477714
H    -0.538395  2.048282  -0.295204
N    -0.950813  -0.576941  1.512405
C    -2.298520  -1.158696  1.532496
C    -3.042205  -0.457590  2.688723
O    -2.400671  0.093490  3.662952
H    -0.285395  -1.063734  2.117032
H    -2.814642  -0.933114  0.587038
C    -2.184190  -2.708347  1.677754
C    -1.446476  -3.268845  0.440363
C    -3.543061  -3.381217  1.891522
C    -0.990223  -4.720472  0.595875
H    -1.564404  -2.896413  2.576009
H    -0.565490  -2.645974  0.217250
H    -2.112064  -3.172878  -0.433606
H    -4.019875  -3.109651  2.841344
H    -3.409817  -4.468225  1.916490
H    -4.236522  -3.171429  1.062403
H    -0.422354  -5.029950  -0.289446
H    -1.831606  -5.416639  0.696521
H    -0.335676  -4.849929  1.468945
N    -4.357339  -0.433429  2.682837
C    -5.197192  0.144306  3.739501
H    -4.830190  -0.896502  1.908923
H    -6.239123  -0.102377  3.521125
H    -5.084000  1.235037  3.762602
H    -4.918966  -0.272763  4.713779
Pb    -0.490329  1.143476  4.285274
