32
Energy: -606846.025138 eV PBE+vdW (tier 2 basis)
C    -1.264917  -0.027535  -0.327061
C    -0.734613  -0.246747  1.051879
O    0.346670  -0.911130  1.177985
H    -2.199432  0.542150  -0.353164
H    -1.422744  -1.004921  -0.804133
H    -0.503879  0.495653  -0.922583
N    -1.425766  0.262501  2.078059
C    -1.241954  0.213245  3.554689
C    0.087752  0.835281  3.992570
O    1.222138  0.267619  3.826390
H    -2.267629  0.758481  1.795203
H    -2.020398  0.901097  3.910435
C    -1.630603  -1.149475  4.214114
C    -1.911703  -0.983558  5.729256
C    -0.742162  -2.367159  3.927953
C    -0.707890  -0.926258  6.673496
H    -2.602868  -1.372065  3.743432
H    -2.547270  -1.831291  6.023590
H    -2.544951  -0.093522  5.872549
H    -0.657747  -2.594738  2.854283
H    -1.182064  -3.268345  4.379032
H    0.244363  -2.290521  4.431681
H    -1.057624  -0.797502  7.704745
H    -0.023814  -0.091345  6.468858
H    -0.121370  -1.854626  6.661975
N    0.042434  2.005388  4.603037
C    1.216498  2.704465  5.136483
H    -0.867082  2.435553  4.749274
H    1.958197  2.856598  4.344366
H    1.668936  2.118450  5.946546
H    0.892721  3.673233  5.524621
Pb    1.906772  -1.513979  2.652440
