32
Energy: -606844.542715 eV PBE+vdW (tier 2 basis)
C    0.441973  0.921502  1.011445
C    -0.253290  -0.137848  1.788346
O    0.408560  -0.739745  2.757323
H    0.758716  1.728735  1.687049
H    -0.198381  1.339803  0.228495
H    1.349352  0.504043  0.552558
N    -1.479111  -0.479729  1.521359
C    -2.334977  -1.491607  2.140565
C    -3.399019  -1.684256  1.003125
O    -3.454821  -0.788874  0.146947
H    -2.029927  -0.087088  0.702874
H    -1.755774  -2.414605  2.289629
C    -2.927551  -0.956801  3.501251
C    -2.949893  -2.014424  4.620496
C    -4.302489  -0.297687  3.335326
C    -1.586090  -2.423519  5.185927
H    -2.231892  -0.163449  3.827219
H    -3.478021  -2.922293  4.299508
H    -3.536845  -1.608284  5.456882
H    -4.301706  0.458260  2.540682
H    -4.592062  0.204251  4.266526
H    -5.082770  -1.033509  3.100017
H    -1.656831  -3.115714  6.035440
H    -1.076086  -1.510770  5.580075
H    -0.982017  -2.950982  4.411158
N    -4.189497  -2.762766  0.973190
C    -4.240752  -3.914282  1.863591
H    -4.852994  -2.747294  0.199167
H    -4.530315  -4.795025  1.280802
H    -4.977743  -3.776412  2.667006
H    -3.255798  -4.119560  2.298185
Pb    1.205082  -1.632533  4.485565
