32
Energy: -606845.328971 eV PBE+vdW (tier 2 basis)
C    -0.038155  0.339823  -0.282094
C    -0.192825  -0.137283  1.113943
O    0.840142  -0.484118  1.794032
H    0.583273  1.246318  -0.316467
H    -0.990311  0.504829  -0.793324
H    0.529669  -0.430973  -0.828173
N    -1.400230  -0.217887  1.706319
C    -2.411323  0.846874  1.686397
C    -1.706404  2.129022  2.160316
O    -0.713176  2.050481  2.986511
H    -1.420101  -0.783743  2.557425
H    -2.797435  0.978512  0.667549
C    -3.602920  0.408782  2.607096
C    -4.837991  1.309863  2.416767
C    -3.207640  0.270540  4.082250
C    -6.111768  0.741855  3.049607
H    -3.863231  -0.590229  2.215045
H    -5.013926  1.444161  1.338035
H    -4.639953  2.308691  2.839163
H    -2.334158  -0.382829  4.257617
H    -4.024068  -0.199919  4.641000
H    -3.008012  1.244153  4.551003
H    -6.970767  1.371454  2.789954
H    -6.058503  0.708172  4.144431
H    -6.324404  -0.271655  2.683798
N    -2.079852  3.329526  1.765540
C    -3.106587  3.742128  0.803466
H    -1.550531  4.090450  2.197488
H    -2.676021  4.512666  0.154209
H    -3.971092  4.161722  1.331504
H    -3.436032  2.899726  0.191814
Pb    0.961866  0.724580  3.719325
