32
Energy: -606845.479028 eV PBE+vdW (tier 2 basis)
C    -3.499771  -0.385959  -0.680004
C    -2.651017  0.287365  0.334082
O    -2.562391  1.571806  0.342024
H    -3.253827  0.054274  -1.658681
H    -4.562658  -0.158463  -0.508442
H    -3.348121  -1.467859  -0.723329
N    -1.959582  -0.403767  1.256541
C    -2.514535  -1.501693  2.048325
C    -3.610729  -0.885422  2.945560
O    -3.719737  0.389171  3.108645
H    -1.236035  0.130611  1.742405
H    -2.988181  -2.228592  1.373728
C    -1.374286  -2.224205  2.832287
C    -1.822781  -3.550375  3.477637
C    -0.698771  -1.310251  3.861054
C    -2.528049  -4.544996  2.553415
H    -0.646315  -2.476314  2.042646
H    -2.424539  -3.349513  4.380084
H    -0.908135  -4.021542  3.865237
H    -0.248470  -0.402706  3.427396
H    0.131651  -1.843177  4.339741
H    -1.389420  -1.007033  4.661570
H    -3.525640  -4.217674  2.209659
H    -2.684089  -5.500291  3.068014
H    -1.934206  -4.754671  1.653141
N    -4.443182  -1.693849  3.564306
C    -5.517170  -1.273333  4.471781
H    -4.322879  -2.693702  3.404878
H    -5.899837  -2.160521  4.982605
H    -6.332650  -0.804076  3.907338
H    -5.129304  -0.564719  5.211128
Pb    -3.190771  2.450128  2.331201
