32
Energy: -606844.667038 eV PBE+vdW (tier 2 basis)
C    0.291036  1.035001  0.682068
C    -0.247649  0.144817  1.745986
O    0.579910  -0.282766  2.676711
H    0.743691  1.931338  1.127771
H    -0.478190  1.334649  -0.036540
H    1.092440  0.502063  0.149063
N    -1.497615  -0.226390  1.732678
C    -2.231096  -1.227628  2.519035
C    -3.276768  -1.702424  1.444425
O    -3.606887  -0.867937  0.594271
H    -2.140508  0.059548  0.950039
H    -1.554880  -2.045444  2.806489
C    -2.941794  -0.586497  3.749380
C    -1.970891  -0.164381  4.882655
C    -4.062685  -1.466959  4.322872
C    -1.255567  -1.307381  5.615149
H    -3.406655  0.340638  3.379854
H    -2.535542  0.417256  5.625896
H    -1.268355  0.608169  4.462642
H    -4.469461  -1.017506  5.237997
H    -3.730119  -2.484861  4.570234
H    -4.894255  -1.549509  3.614277
H    -0.701374  -0.974745  6.513511
H    -0.615742  -1.949858  4.970841
H    -1.979831  -2.026614  6.027408
N    -3.718304  -2.960920  1.515236
C    -4.721533  -3.511841  0.600496
H    -3.371870  -3.562900  2.254620
H    -4.377716  -4.479943  0.220540
H    -4.852771  -2.815818  -0.232006
H    -5.680809  -3.644227  1.116609
Pb    1.121861  -0.013402  4.718148
