32
Energy: -606846.077687 eV PBE+vdW (tier 2 basis)
C    1.280573  0.711499  0.873939
C    0.138463  0.328452  1.757147
O    -0.604332  -0.639575  1.385911
H    0.888974  0.961662  -0.121931
H    1.938535  -0.159196  0.745250
H    1.866634  1.554508  1.253934
N    -0.041118  1.023365  2.886252
C    -1.055642  0.970170  3.971770
C    -1.140352  -0.397681  4.662002
O    -1.665171  -1.427165  4.111472
H    0.643237  1.764398  3.017596
H    -0.631339  1.651442  4.721226
C    -2.437961  1.609759  3.633356
C    -3.244012  1.784617  4.940292
C    -3.269548  0.954155  2.524491
C    -4.487388  2.665311  4.798542
H    -2.177128  2.616930  3.264619
H    -2.582195  2.231338  5.700029
H    -3.535282  0.793889  5.330193
H    -2.716722  0.829522  1.581340
H    -4.129991  1.586627  2.268237
H    -3.745450  0.011594  2.873744
H    -4.944004  2.829470  5.781437
H    -5.258192  2.211267  4.163036
H    -4.237029  3.650997  4.383775
N    -0.699139  -0.471003  5.904604
C    -0.748424  -1.654001  6.766841
H    -0.300050  0.371912  6.312037
H    -1.253164  -1.392312  7.704186
H    0.273084  -1.985664  6.990876
H    -1.294783  -2.452110  6.261021
Pb    -2.302084  -1.931177  2.026773
