32
Energy: -606845.481716 eV PBE+vdW (tier 2 basis)
C    0.717832  -0.353402  3.449588
C    -0.407400  -0.197752  4.404617
O    -0.231508  -0.482972  5.649504
H    1.501927  0.392704  3.648956
H    0.407481  -0.301323  2.402408
H    1.180091  -1.333383  3.643132
N    -1.618804  0.229859  4.016793
C    -1.848285  1.372591  3.133714
C    -1.490959  2.640916  3.953967
O    -1.169283  2.575506  5.199227
H    -2.372772  0.070233  4.688428
H    -1.145138  1.310614  2.289865
C    -3.300304  1.374957  2.580169
C    -4.345989  1.485697  3.709231
C    -3.504481  0.166893  1.660258
C    -5.768363  1.756715  3.210673
H    -3.383559  2.285973  1.961912
H    -4.057407  2.296543  4.401906
H    -4.361982  0.551092  4.300763
H    -2.753824  0.132661  0.859454
H    -4.487253  0.215163  1.179227
H    -3.457779  -0.780787  2.214951
H    -5.808640  2.668300  2.599348
H    -6.451724  1.893672  4.056679
H    -6.158123  0.927056  2.609541
N    -1.519437  3.800156  3.331719
C    -1.218232  5.113752  3.907178
H    -1.787511  3.787772  2.348149
H    -0.328399  5.530964  3.419746
H    -1.041933  5.012601  4.979271
H    -2.068283  5.783850  3.732638
Pb    -0.678151  1.274387  6.993724
