32
Energy: -606846.086634 eV PBE+vdW (tier 2 basis)
C    -0.525360  -3.422749  0.809550
C    -0.649545  -2.167654  1.601445
O    0.128488  -1.184711  1.329054
H    -0.710185  -3.187146  -0.248927
H    -1.221394  -4.205085  1.129299
H    0.505009  -3.797518  0.874413
N    -1.578734  -2.082913  2.554357
C    -1.959371  -0.873875  3.301164
C    -0.949011  -0.630039  4.438729
O    0.124299  0.037332  4.191013
H    -2.160367  -2.906814  2.700455
H    -1.816217  -0.023660  2.617245
C    -3.474507  -0.892475  3.640439
C    -3.939251  0.454221  4.235569
C    -3.972179  -2.077233  4.487092
C    -3.619223  1.695766  3.401479
H    -3.943595  -0.984560  2.645443
H    -3.539880  0.571644  5.256326
H    -5.028672  0.378138  4.360581
H    -5.055857  -2.181345  4.353328
H    -3.837644  -1.926509  5.570431
H    -3.539847  -3.054742  4.223591
H    -2.544354  1.936700  3.382798
H    -4.118355  2.575483  3.824294
H    -3.970088  1.593905  2.364661
N    -1.176871  -1.100463  5.643029
C    -0.304070  -0.959368  6.811094
H    -2.060341  -1.593448  5.776383
H    0.074166  -1.946031  7.106720
H    -0.885585  -0.538319  7.639525
H    0.529399  -0.297199  6.569957
Pb    1.168142  0.540667  2.278462
