32
Energy: -606846.089742 eV PBE+vdW (tier 2 basis)
C    -0.089249  0.024820  -0.051280
C    -0.157524  -0.087044  1.436624
O    0.910717  0.124443  2.100692
H    0.249703  1.035636  -0.317563
H    -1.040995  -0.181015  -0.551599
H    0.674182  -0.672743  -0.423145
N    -1.334205  -0.404418  1.988113
C    -1.777413  -0.643650  3.385964
C    -1.548827  0.555144  4.314790
O    -0.390764  0.914079  4.725444
H    -2.076404  -0.540335  1.305927
H    -2.866008  -0.724482  3.273261
C    -1.366452  -2.019745  3.993030
C    -2.193935  -2.315548  5.264844
C    0.125164  -2.266096  4.255699
C    -3.706887  -2.413540  5.064289
H    -1.669438  -2.747178  3.220380
H    -1.954440  -1.573797  6.046176
H    -1.831959  -3.275809  5.659845
H    0.483256  -1.698180  5.140366
H    0.755750  -2.114849  3.365190
H    0.289215  -3.313772  4.545026
H    -4.185011  -1.454664  4.811748
H    -4.188334  -2.756466  5.987608
H    -3.965527  -3.134725  4.276974
N    -2.622336  1.193012  4.744789
C    -2.635821  2.314403  5.686965
H    -3.526102  0.874805  4.401840
H    -3.377595  2.112522  6.467899
H    -2.912903  3.236034  5.159548
H    -1.646414  2.428036  6.134165
Pb    1.706557  0.368125  4.166392
