32
Energy: -606845.409503 eV PBE+vdW (tier 2 basis)
C    0.730215  0.078879  2.257722
C    -0.260435  0.052451  3.361751
O    0.133670  0.030165  4.582701
H    1.251095  1.048508  2.236440
H    0.293357  -0.134001  1.278105
H    1.502826  -0.670895  2.485169
N    -1.588540  0.058978  3.126715
C    -2.265491  0.943033  2.184159
C    -1.931870  2.400133  2.569334
O    -1.408431  2.695498  3.707117
H    -2.166762  -0.224223  3.919616
H    -1.859652  0.774927  1.175815
C    -3.799715  0.626335  2.141105
C    -4.431400  0.260197  3.503609
C    -4.059992  -0.485074  1.116533
C    -4.305015  1.248032  4.666418
H    -4.292409  1.547305  1.793410
H    -4.108847  -0.748762  3.815615
H    -5.504883  0.131097  3.301959
H    -3.735745  -0.194778  0.108427
H    -5.130942  -0.714276  1.062234
H    -3.538446  -1.413694  1.388466
H    -3.299887  1.216175  5.150226
H    -5.010067  0.999312  5.468426
H    -4.482535  2.289930  4.369022
N    -2.150776  3.379333  1.712304
C    -2.699003  3.323776  0.353587
H    -1.903913  4.308106  2.059520
H    -2.122381  4.006499  -0.279749
H    -3.749100  3.643181  0.354646
H    -2.628517  2.315231  -0.062310
Pb    -0.780265  1.800935  5.698380
