20
Energy: -14935.6620667 eV PBE+vdW (tier 2 basis)
N    -0.324482  -1.332865  -0.281588
C    -0.123498  -0.843319  1.088130
C    1.325034  -1.058958  1.538225
O    1.866893  -2.137221  1.661172
H    0.270516  -0.821737  -0.934820
H    -0.046093  -2.315269  -0.336997
H    -0.329760  0.236162  1.085038
C    -1.095162  -1.559848  2.030252
C    -1.112806  -1.060086  3.441439
N    -1.743102  -1.794822  4.427799
C    -0.593614  0.099552  3.981643
C    -1.611102  -1.097894  5.538875
N    -0.920538  0.059590  5.322351
H    -0.853027  -2.633702  2.046508
H    -2.098322  -1.474295  1.585516
H    -0.029688  0.921597  3.558537
H    -1.987319  -1.379976  6.516934
H    -0.678744  0.757914  6.014430
O    1.987876  0.121645  1.729739
H    2.901626  -0.123269  1.977543
