20
Energy: -14935.6205338 eV PBE+vdW (tier 2 basis)
N    1.726725  -1.820544  0.372522
C    0.685381  -1.069949  1.054619
C    1.084319  0.256938  1.708029
O    0.344204  1.211259  1.837018
H    2.335446  -2.298723  1.037047
H    2.311043  -1.211571  -0.198136
H    -0.087750  -0.794994  0.319904
C    0.009264  -1.936476  2.151376
C    -0.490408  -3.250868  1.647344
N    0.247937  -4.407083  1.807323
C    -1.658008  -3.528640  0.967649
C    -0.454214  -5.365124  1.233980
N    -1.618550  -4.881755  0.707580
H    -0.807616  -1.348831  2.591486
H    0.740926  -2.134407  2.948794
H    -2.486173  -2.905206  0.653210
H    -0.176689  -6.412340  1.173809
H    -2.331187  -5.417199  0.227168
O    2.370190  0.260331  2.166146
H    2.494161  1.132183  2.589132
