20
Energy: -14935.6073166 eV PBE+vdW (tier 2 basis)
N    -0.072795  0.329289  0.143324
C    0.268130  -0.118333  1.500211
C    1.783338  -0.293120  1.564740
O    2.529085  0.258059  2.346222
H    -1.064833  0.564537  0.099363
H    0.086405  -0.425191  -0.526362
H    0.044774  0.709819  2.186684
C    -0.481616  -1.385902  1.966719
C    -0.305748  -1.790136  3.399689
N    -1.017416  -2.866692  3.898260
C    0.478635  -1.243741  4.395295
C    -0.671347  -2.971198  5.165968
N    0.233001  -2.010354  5.516233
H    -0.204824  -2.229047  1.313613
H    -1.554930  -1.209722  1.787946
H    1.181934  -0.420093  4.405094
H    -1.039711  -3.711993  5.868317
H    0.655837  -1.880632  6.427008
O    2.225678  -1.171759  0.622673
H    3.195761  -1.213598  0.726283
