20
Energy: -14935.6880502 eV PBE+vdW (tier 2 basis)
N    0.931143  0.039640  0.003121
C    0.242806  -0.163775  1.268445
C    1.205362  -0.840305  2.232755
O    2.185350  -1.475610  1.906800
H    0.265847  0.137886  -0.762464
H    1.526062  -0.767760  -0.191780
H    -0.022422  0.813239  1.703995
C    -1.087849  -0.989453  1.195977
C    -0.903457  -2.413788  0.792962
N    -0.659588  -3.397393  1.734062
C    -0.870950  -2.960097  -0.473735
C    -0.485351  -4.512521  1.053256
N    -0.604249  -4.300724  -0.291097
H    -1.744037  -0.468383  0.483066
H    -1.579331  -0.955579  2.177887
H    -1.018229  -2.531513  -1.457530
H    -0.276802  -5.490978  1.473435
H    -0.521255  -4.997740  -1.020865
O    0.818905  -0.674362  3.523965
H    1.429045  -1.217784  4.058744
