20
Energy: -14935.7324073 eV PBE+vdW (tier 2 basis)
N    -0.654563  -1.762391  3.008994
C    0.472258  -1.294733  2.216087
C    0.820234  0.114405  2.656404
O    0.028028  0.922042  3.097668
H    -1.340293  -1.010187  3.101151
H    -1.105166  -2.550367  2.542138
H    1.343683  -1.941389  2.396132
C    0.236982  -1.262400  0.666648
C    -0.101521  -2.613700  0.135039
N    0.855278  -3.605018  0.018031
C    -1.332452  -3.102161  -0.254353
C    0.220758  -4.665404  -0.440437
N    -1.109755  -4.412791  -0.623495
H    1.149327  -0.894849  0.174834
H    -0.577314  -0.555703  0.449912
H    -2.311332  -2.642362  -0.316633
H    0.666325  -5.630700  -0.658392
H    -1.804300  -5.060827  -0.974348
O    2.132640  0.405508  2.448353
H    2.243182  1.342027  2.704269
