20
Energy: -14935.851855 eV PBE+vdW (tier 2 basis)
N    2.187686  -0.655683  2.773549
C    1.166370  -0.803783  1.720418
C    0.962950  0.551577  1.010009
O    0.050019  0.782021  0.247665
H    1.749909  -0.485864  3.680817
H    2.727060  -1.515819  2.864722
H    1.588537  -1.478009  0.959058
C    -0.174331  -1.399805  2.171750
C    -0.018358  -2.773551  2.747235
N    0.911520  -3.665655  2.245861
C    -0.719493  -3.361575  3.778336
C    0.767833  -4.773200  2.949365
N    -0.211367  -4.639941  3.890001
H    -0.842013  -1.412765  1.297439
H    -0.651657  -0.734992  2.908868
H    -1.518742  -3.001365  4.414568
H    1.340678  -5.686426  2.825719
H    -0.509547  -5.344598  4.553352
O    1.926426  1.446751  1.302106
H    2.496520  0.957683  1.963163
