20
Energy: -14935.6025008 eV PBE+vdW (tier 2 basis)
N    1.427864  -1.074111  0.596971
C    0.477847  0.024223  0.596373
C    0.209040  0.426468  2.039974
O    0.899231  0.121969  2.989292
H    1.838939  -1.208635  -0.324183
H    2.167492  -0.913082  1.278970
H    0.868593  0.964263  0.141898
C    -0.799380  -0.334135  -0.202731
C    -1.494860  -1.576139  0.256211
N    -1.376739  -2.759996  -0.445152
C    -2.291114  -1.767084  1.367261
C    -2.079590  -3.650453  0.227465
N    -2.652345  -3.097154  1.337338
H    -0.503723  -0.490180  -1.249581
H    -1.475706  0.530637  -0.184567
H    -2.622531  -1.097118  2.150694
H    -2.210172  -4.694380  -0.038227
H    -3.237650  -3.570826  2.014312
O    -0.875713  1.246970  2.160517
H    -0.903484  1.500764  3.103165
