20
Energy: -14935.7762534 eV PBE+vdW (tier 2 basis)
N    1.935855  -0.417367  0.419549
C    0.710541  -0.139860  1.147652
C    0.723057  -0.630285  2.601171
O    1.625374  -1.232760  3.141326
H    2.735977  -0.358685  1.050544
H    1.909339  -1.380621  0.070769
H    0.566261  0.954120  1.214748
C    -0.515307  -0.710454  0.390858
C    -0.573386  -2.203982  0.411101
N    0.352359  -2.978978  -0.266832
C    -1.448675  -3.018712  1.097225
C    0.042243  -4.232337  0.002634
N    -1.045179  -4.308761  0.824176
H    -0.442887  -0.351335  -0.645842
H    -1.433544  -0.299338  0.826388
H    -2.293726  -2.799492  1.738065
H    0.560769  -5.111364  -0.365550
H    -1.481948  -5.155651  1.166428
O    -0.414785  -0.266875  3.267964
H    -0.299337  -0.592261  4.181624
