20
Energy: -14935.8513081 eV PBE+vdW (tier 2 basis)
N    -1.372605  0.566710  0.731819
C    -0.373219  0.205140  1.748770
C    1.075630  0.548218  1.309953
O    1.591474  1.588414  1.675246
H    -1.202648  0.053815  -0.135351
H    -1.281788  1.558341  0.506769
H    -0.539097  0.870796  2.605751
C    -0.616619  -1.237818  2.250275
C    -0.804595  -2.266225  1.181101
N    0.105717  -2.412007  0.150003
C    -1.821834  -3.177605  1.012725
C    -0.341738  -3.386431  -0.622571
N    -1.508345  -3.883100  -0.131565
H    -1.521163  -1.222495  2.872620
H    0.219508  -1.528838  2.906198
H    -2.718167  -3.376036  1.586175
H    0.132083  -3.756900  -1.524506
H    -2.053126  -4.634697  -0.536170
O    1.715278  -0.282243  0.468839
H    1.179253  -1.115039  0.266918
