20
Energy: -14935.8462933 eV PBE+vdW (tier 2 basis)
N    1.074416  -0.514930  -0.294102
C    0.133447  -0.061025  0.747353
C    0.748808  1.130119  1.509643
O    0.124191  1.819386  2.284701
H    0.843212  -0.104763  -1.198170
H    1.018565  -1.528774  -0.407201
H    -0.828809  0.273063  0.331942
C    -0.155660  -1.190083  1.759291
C    -0.773427  -2.387986  1.114063
N    -1.970558  -2.307257  0.427453
C    -0.295864  -3.682145  1.073665
C    -2.218206  -3.526396  -0.007963
N    -1.232869  -4.399109  0.358490
H    -0.822620  -0.777733  2.528666
H    0.779372  -1.481747  2.261281
H    0.587631  -4.145846  1.495883
H    -3.083840  -3.833419  -0.586156
H    -1.197196  -5.390119  0.152920
O    2.061067  1.301046  1.252410
H    2.250339  0.594718  0.568832
