20
Energy: -14935.6682118 eV PBE+vdW (tier 2 basis)
N    1.747107  0.175998  -0.013133
C    0.417741  -0.127822  0.532847
C    0.364795  0.064163  2.050529
O    -0.222283  0.960454  2.624244
H    2.024443  1.128146  0.227598
H    2.446480  -0.451240  0.388043
H    -0.279917  0.616176  0.123147
C    -0.008205  -1.531932  0.095034
C    -1.389341  -1.938736  0.506471
N    -1.794224  -3.253358  0.370862
C    -2.421547  -1.180763  1.022653
C    -3.042882  -3.291955  0.792348
N    -3.469975  -2.060806  1.199153
H    0.703625  -2.273573  0.488692
H    0.085769  -1.569833  -1.001234
H    -2.505619  -0.134314  1.289593
H    -3.677058  -4.171911  0.827066
H    -4.381369  -1.830206  1.575116
O    1.117650  -0.859731  2.714184
H    1.051811  -0.629757  3.660785
