20
Energy: -14935.7337497 eV PBE+vdW (tier 2 basis)
N    3.006264  -1.133579  0.948572
C    1.633372  -1.616758  0.766183
C    0.618782  -0.479847  0.909487
O    0.413852  0.148847  1.930058
H    3.261416  -0.487164  0.201184
H    3.076763  -0.615034  1.826894
H    1.547668  -2.038134  -0.243511
C    1.322476  -2.718912  1.795412
C    -0.033912  -3.318460  1.613144
N    -0.292895  -4.227615  0.603875
C    -1.188601  -3.061436  2.321846
C    -1.574899  -4.519037  0.703362
N    -2.164042  -3.836391  1.730545
H    1.411770  -2.292055  2.804953
H    2.095259  -3.491157  1.684812
H    -1.394066  -2.408248  3.161067
H    -2.123289  -5.210736  0.072045
H    -3.133783  -3.894851  2.015895
O    -0.014558  -0.198718  -0.262981
H    -0.611576  0.552284  -0.072840
