20
Energy: -14935.9880143 eV PBE+vdW (tier 2 basis)
N    -0.420572  0.659273  0.152958
C    -0.329615  0.210900  1.554944
C    1.111369  -0.289919  1.832484
O    1.444970  -0.820350  2.871399
H    -0.916573  -0.044831  -0.407323
H    -0.923498  1.539946  0.071267
H    -0.470629  1.077872  2.218602
C    -1.353159  -0.877487  1.948539
C    -1.247858  -2.086327  1.077435
N    -1.652466  -2.058462  -0.248588
C    -0.700960  -3.315496  1.371860
C    -1.360110  -3.249068  -0.740368
N    -0.785067  -4.045258  0.205874
H    -2.365121  -0.452625  1.878337
H    -1.173075  -1.154144  2.994403
H    -0.251656  -3.708327  2.275153
H    -1.544204  -3.583456  -1.755774
H    -0.475719  -5.001075  0.078929
O    1.946203  -0.059360  0.808437
H    1.336740  0.371194  0.130432
