20
Energy: -14935.5427507 eV PBE+vdW (tier 2 basis)
N    1.783401  0.440998  0.120927
C    0.492020  0.059036  0.699397
C    0.657803  -0.366497  2.158904
O    -0.019495  0.064260  3.069834
H    2.172918  1.249104  0.607272
H    1.654025  0.716951  -0.853366
H    -0.249751  0.876918  0.738393
C    -0.108649  -1.095411  -0.139989
C    -1.420022  -1.598413  0.368818
N    -1.486433  -2.583792  1.335560
C    -2.691885  -1.177394  0.040449
C    -2.768990  -2.755044  1.587781
N    -3.542269  -1.924966  0.826723
H    0.619079  -1.917077  -0.165844
H    -0.225475  -0.721747  -1.169216
H    -3.057710  -0.436189  -0.659798
H    -3.191638  -3.457862  2.298277
H    -4.553315  -1.869957  0.831492
O    1.632916  -1.291338  2.332022
H    1.594469  -1.537579  3.276366
