20
Energy: -14935.8752919 eV PBE+vdW (tier 2 basis)
N    -0.521170  1.132142  1.257354
C    0.408821  0.166849  1.870073
C    1.650829  0.024553  0.960497
O    2.455471  -0.876674  1.048470
H    -1.153290  1.490353  1.975941
H    -1.128339  0.641758  0.595596
H    0.791284  0.637117  2.791956
C    -0.187948  -1.200043  2.242793
C    -1.095072  -1.134462  3.430301
N    -2.105793  -0.192805  3.539037
C    -1.079689  -1.929565  4.555958
C    -2.687430  -0.417917  4.702440
N    -2.102486  -1.462988  5.355257
H    0.635579  -1.899041  2.437882
H    -0.730359  -1.593789  1.365521
H    -0.448974  -2.759432  4.850064
H    -3.523320  0.136714  5.115939
H    -2.366308  -1.830300  6.261233
O    1.769339  1.039190  0.083091
H    0.943854  1.581341  0.246599
