19
Energy: -568405.6536147  eV PBE+vdW (tier 2 basis)
N    0.39782  -0.04688  -0.30033
C    0.01024  -0.14900  1.05777
C    1.05739  0.47141  2.05148
O    0.73210  1.05368  3.05387
H    0.11339  0.77944  -0.81606
H    1.31723  -0.39758  -0.55518
H    -0.90909  0.42585  1.22336
C    -0.18057  -1.62473  1.54368
C    -1.49759  -2.17868  1.03583
C    -1.63320  -3.72339  1.26935
O    -0.62235  -4.45066  1.23309
O    -2.83531  -4.09102  1.43873
H    -0.16062  -1.63120  2.64142
H    0.66327  -2.23328  1.19223
H    -1.59732  -2.06877  -0.05482
H    -2.36618  -1.70319  1.50311
O    2.31507  0.24169  1.64261
H    2.92917  0.62578  2.30187
Hg    -2.21805  -6.34474  1.65392
