19
Energy: -568405.7226847  eV PBE+vdW (tier 2 basis)
N    0.67981  -1.79286  0.12634
C    -0.03185  -0.82140  1.00070
C    0.89321  0.36909  1.37211
O    0.72081  1.05578  2.34660
H    1.19696  -1.29084  -0.59981
H    1.36011  -2.33557  0.66697
H    -0.82733  -0.36498  0.38854
C    -0.63732  -1.42426  2.29380
C    -2.08272  -1.96002  2.19849
C    -2.08026  -2.87567  0.96794
O    -2.46298  -2.34443  -0.11981
O    -1.44759  -3.96622  1.07315
H    -0.63184  -0.61858  3.04163
H    0.02477  -2.21884  2.66698
H    -2.80991  -1.15509  2.05719
H    -2.33032  -2.53847  3.09412
O    1.85415  0.56312  0.44584
H    2.37052  1.35697  0.69601
Hg    -0.69152  -3.51848  -1.12287
