19
Energy: -568405.8498205  eV PBE+vdW (tier 2 basis)
N    0.45974  -0.24080  0.02756
C    0.14317  -0.07670  1.43919
C    1.51476  -0.12201  2.20210
O    1.57875  -0.21837  3.43358
H    0.34332  -1.19451  -0.31369
H    -0.03294  0.40502  -0.58484
H    -0.21675  0.95206  1.59532
C    -0.92613  -1.01309  2.04904
C    -0.71873  -2.54214  1.98855
C    0.56338  -2.87238  2.77859
O    0.48103  -2.94499  4.03649
O    1.63770  -2.85569  2.10951
H    -1.85748  -0.80842  1.49925
H    -1.09341  -0.71513  3.09193
H    -0.61155  -2.92116  0.96566
H    -1.56717  -3.04096  2.46795
O    2.56079  -0.06717  1.42628
H    2.14852  -0.05361  0.49410
Hg    2.72332  -2.25459  4.16467
