19
Energy: -568405.5799312  eV PBE+vdW (tier 2 basis)
N    -0.50610  0.59866  0.49842
C    0.06138  0.16803  1.74291
C    1.60017  0.36572  1.84454
O    2.26314  0.53479  2.86157
H    -0.25438  0.05327  -0.32242
H    -0.47327  1.59762  0.31171
H    -0.36081  0.78787  2.54960
C    -0.29142  -1.32726  2.00369
C    -1.03336  -1.60720  3.33359
C    -0.13761  -1.05156  4.44279
O    -0.35774  0.15706  4.77481
O    0.85298  -1.74029  4.81274
H    0.60106  -1.96420  1.95076
H    -0.97041  -1.64358  1.19715
H    -1.16956  -2.68596  3.46573
H    -2.00255  -1.09946  3.37157
O    2.17707  0.31264  0.64146
H    3.14576  0.41603  0.74869
Hg    1.85563  0.29682  5.50068
