19
Energy: -568405.8619339  eV PBE+vdW (tier 2 basis)
N    1.28911  -1.35927  1.33858
C    0.36340  -0.20540  1.47216
C    1.14267  0.98548  2.05090
O    2.31901  0.94986  2.38800
H    0.77719  -2.24231  1.28473
H    1.88934  -1.26684  0.51759
H    0.08497  0.12655  0.45725
C    -0.99185  -0.54893  2.17517
C    -1.07415  -0.63816  3.72470
C    0.20881  -1.31780  4.19673
O    1.09127  -0.50770  4.67048
O    0.42758  -2.50105  3.84678
H    -1.32476  -1.50367  1.74369
H    -1.71617  0.20686  1.84783
H    -1.94677  -1.24104  3.99866
H    -1.15880  0.35222  4.18032
O    0.38992  2.08048  2.08881
H    0.92234  2.82331  2.44242
Hg    2.66389  -1.45161  3.34320
