19
Energy: -568405.5914844  eV PBE+vdW (tier 2 basis)
N    -0.51607  0.73439  0.25764
C    -0.13777  0.21480  1.50729
C    1.36253  -0.08696  1.47622
O    2.00908  -0.11925  0.45418
H    0.16540  0.71158  -0.49813
H    -1.36927  1.26607  0.14235
H    -0.35072  0.93558  2.31772
C    -0.97620  -1.07131  1.96985
C    -0.56341  -2.32080  1.23453
C    -1.56508  -3.51233  1.50283
O    -0.97838  -4.60846  1.73493
O    -2.79014  -3.30760  1.42811
H    -2.03551  -0.84156  1.80166
H    -0.81456  -1.16826  3.05080
H    0.43532  -2.67333  1.50761
H    -0.60506  -2.20362  0.14114
O    1.83570  -0.32952  2.71181
H    2.79528  -0.50841  2.63721
Hg    -3.02880  -5.74803  1.95536
