19
Energy: -568407.9728832  eV PBE+vdW (tier 2 basis)
N    -0.88318  0.72617  1.07471
C    0.06175  -0.02993  1.55301
C    1.43978  0.62304  1.43318
O    1.55052  1.76230  1.04793
H    -1.85836  0.44050  1.04199
H    -0.64982  1.70329  0.84341
H    -1.21370  -1.48834  5.68801
C    -0.15801  -1.47636  1.89555
C    -0.93328  -1.64158  3.21448
C    -0.43951  -0.58224  4.18105
O    0.19062  0.38336  3.76427
O    -0.72266  -0.67299  5.47634
H    0.82125  -1.95789  1.97978
H    -0.69718  -1.96240  1.06992
H    -0.80368  -2.65606  3.61524
H    -2.01827  -1.49822  3.08243
O    2.41957  -0.21426  1.78137
H    3.27318  0.25771  1.69492
Hg    -1.02848  4.22634  1.94372
