19
Energy: -568405.7005180  eV PBE+vdW (tier 2 basis)
N    0.23725  -0.27690  0.27656
C    0.04117  -0.25817  1.73167
C    1.45485  -0.53971  2.33838
O    1.82282  -0.40372  3.52082
H    0.28855  0.65322  -0.13715
H    -0.45980  -0.82494  -0.22384
H    -0.26419  0.73853  2.08524
C    -1.00479  -1.31740  2.19049
C    -2.16656  -0.77161  3.06466
C    -1.46988  -0.19149  4.28990
O    -1.11891  1.02811  4.21628
O    -1.06688  -1.00955  5.17137
H    -0.52039  -2.14063  2.73113
H    -1.46528  -1.76301  1.29679
H    -2.82923  -1.59396  3.35342
H    -2.73590  0.01193  2.55405
O    2.30456  -0.96982  1.45346
H    1.75009  -0.90288  0.58103
Hg    0.75552  0.40099  5.47674
