19
Energy: -568405.5599708  eV PBE+vdW (tier 2 basis)
N    -0.67858  0.42796  0.48072
C    -0.05834  0.01172  1.68698
C    1.50981  -0.11509  1.60168
O    2.07766  -0.22441  0.52736
H    -0.81765  1.42744  0.37086
H    -0.32480  0.00002  -0.37179
H    -0.27776  0.75114  2.47170
C    -0.63605  -1.36590  2.19539
C    -0.74777  -2.50674  1.18651
C    0.65088  -2.80696  0.57557
O    0.79508  -2.57953  -0.65324
O    1.56354  -3.10860  1.39432
H    -1.66153  -1.12268  2.50757
H    -0.07789  -1.70423  3.07841
H    -1.43605  -2.27501  0.36822
H    -1.07826  -3.42011  1.69643
O    2.19466  -0.18052  2.74135
H    1.63128  -0.04283  3.52566
Hg    3.16475  -2.44367  -0.22871
