19
Energy: -568405.8615693  eV PBE+vdW (tier 2 basis)
N    0.74115  -1.54351  2.65731
C    -0.00477  -0.69883  1.68939
C    0.60141  0.71247  1.70123
O    1.51289  1.07222  2.43519
H    1.63886  -1.84698  2.27651
H    0.19671  -2.36384  2.93196
H    0.21156  -1.07348  0.67421
C    -1.56106  -0.78229  1.83059
C    -2.29779  0.03740  2.92652
C    -1.42724  -0.01779  4.17929
O    -0.73158  1.04672  4.38509
O    -1.23100  -1.12717  4.72824
H    -1.79781  -1.84788  1.96105
H    -1.98037  -0.48969  0.86022
H    -3.27176  -0.42531  3.11956
H    -2.44329  1.07717  2.62100
O    0.04635  1.48335  0.77120
H    0.47069  2.36644  0.79366
Hg    1.12105  -0.22399  4.66577
