19
Energy: -568405.4727434  eV PBE+vdW (tier 2 basis)
N    0.70194  -0.45772  0.11802
C    0.21830  -0.23173  1.48479
C    1.43910  -0.20595  2.44440
O    2.59880  -0.47599  2.12070
H    -0.00397  -0.87003  -0.49188
H    1.04913  0.39935  -0.31274
H    -0.17832  0.79722  1.57025
C    -0.96678  -1.15680  1.94629
C    -1.03568  -2.65799  1.51886
C    0.38653  -3.16264  1.31321
O    1.18407  -3.08198  2.27612
O    0.72571  -3.36451  0.08484
H    -1.89402  -0.67891  1.60544
H    -0.98858  -1.11874  3.04387
H    -1.60874  -2.78597  0.59644
H    -1.52677  -3.22593  2.31695
O    1.23903  0.23643  3.67447
H    0.30668  0.47683  3.83742
Hg    2.62134  -2.17523  0.47996
