19
Energy: -568405.6632903  eV PBE+vdW (tier 2 basis)
N    -0.45898  0.07130  0.62625
C    -0.03972  -0.14441  1.97702
C    1.52462  -0.02872  2.05979
O    2.27570  -0.96642  2.22388
H    -0.64174  1.02526  0.33277
H    -0.04500  -0.51781  -0.09210
H    -0.41395  0.68835  2.58904
C    -0.56327  -1.46142  2.58958
C    -0.67350  -2.68951  1.68689
C    0.72381  -3.09524  1.12023
O    1.40415  -3.87922  1.83334
O    1.07115  -2.56593  0.03507
H    -1.59688  -1.24390  2.90224
H    0.01098  -1.69884  3.49357
H    -1.32161  -2.50388  0.82230
H    -1.05155  -3.54034  2.26158
O    1.89966  1.24447  1.87977
H    2.87673  1.29386  1.91504
Hg    3.30342  -3.51860  0.50575
