19
Energy: -568405.6815354  eV PBE+vdW (tier 2 basis)
N    -0.16982  -2.02371  1.87402
C    -0.38111  -0.72810  1.34922
C    0.74145  0.24850  1.76508
O    1.50615  0.05814  2.69595
H    0.00535  -2.13778  2.86878
H    -0.55267  -2.82225  1.38292
H    -0.37716  -0.77266  0.25256
C    -1.79271  -0.06775  1.73769
C    -2.28071  -0.24983  3.16608
C    -1.15473  0.15491  4.16157
O    -0.88365  1.37557  4.26600
O    -0.51983  -0.80763  4.68076
H    -2.51103  -0.57718  1.08127
H    -1.75662  0.99419  1.46646
H    -2.55526  -1.28655  3.38345
H    -3.13102  0.41339  3.36130
O    0.73148  1.33372  0.98665
H    1.43617  1.94446  1.28313
Hg    1.18772  0.74157  5.33212
