19
Energy: -568405.5978183  eV PBE+vdW (tier 2 basis)
N    0.54459  -0.11266  -0.11839
C    -0.23100  0.17982  1.03355
C    0.63100  0.98973  2.02910
O    0.22604  2.02437  2.53846
H    0.07725  -0.13705  -1.01691
H    1.34081  -0.73538  -0.02743
H    -1.06393  0.83442  0.74485
C    -0.83751  -1.09892  1.77392
C    -1.97397  -0.86943  2.75942
C    -1.59043  0.17340  3.84619
O    -0.54570  -0.04963  4.50984
O    -2.29613  1.21954  3.87961
H    -0.01311  -1.65174  2.24194
H    -1.24222  -1.70316  0.95176
H    -2.18267  -1.79670  3.30915
H    -2.88904  -0.52793  2.26634
O    1.81470  0.42530  2.25366
H    2.33015  0.97772  2.87494
Hg    -0.60402  2.30643  5.11313
