19
Energy: -568405.5557890  eV PBE+vdW (tier 2 basis)
N    0.22612  -0.61060  0.24877
C    -0.12880  -0.21140  1.55504
C    1.07954  -0.02770  2.53701
O    1.00945  0.68575  3.50311
H    0.25146  0.07639  -0.49544
H    0.77371  -1.45526  0.10612
H    -0.57838  0.78735  1.51642
C    -1.17604  -1.15855  2.26254
C    -1.17074  -2.62664  1.87608
C    0.22547  -3.29804  2.08599
O    0.55531  -3.58871  3.25954
O    0.91874  -3.44871  1.04095
H    -2.15518  -0.76961  1.94490
H    -1.09875  -1.02805  3.34856
H    -1.43028  -2.77038  0.82198
H    -1.87099  -3.17720  2.51469
O    2.16804  -0.74803  2.18730
H    2.86660  -0.53464  2.84080
Hg    2.70074  -4.36899  2.42466
