19
Energy: -568405.6719024  eV PBE+vdW (tier 2 basis)
N    -0.22418  -0.29332  0.60018
C    0.21605  -0.29866  1.94319
C    1.68057  0.23338  2.16040
O    2.30305  0.02211  3.17121
H    -0.21241  0.58658  0.09443
H    -0.02423  -1.10476  0.02253
H    -0.36700  0.45767  2.52394
C    0.03207  -1.63414  2.65868
C    -1.41943  -1.99045  2.97727
C    -2.07032  -1.04884  4.01498
O    -2.92071  -1.59578  4.77208
O    -1.74692  0.17569  4.02635
H    0.63692  -1.60849  3.57535
H    0.44674  -2.45820  2.05393
H    -1.50053  -3.01211  3.36183
H    -2.07157  -1.92696  2.09275
O    2.09873  0.96918  1.12132
H    2.99100  1.31587  1.32997
Hg    -3.34083  0.45222  5.89059
