19
Energy: -568405.6446817  eV PBE+vdW (tier 2 basis)
N    0.25218  -0.20023  -0.20921
C    0.04510  -0.24478  1.27892
C    1.36203  -0.10253  2.04544
O    1.46628  -0.34308  3.22032
H    0.73168  0.66957  -0.45298
H    -0.65213  -0.21415  -0.68932
H    -0.50674  0.68175  1.52479
C    -0.85575  -1.40055  1.80838
C    -0.22108  -2.78852  2.08178
C    0.60746  -3.09068  0.83618
O    -0.02191  -3.33030  -0.23386
O    1.84347  -2.78463  0.90791
H    -1.69645  -1.51776  1.11020
H    -1.27624  -1.04929  2.75842
H    -1.01139  -3.53737  2.19418
H    0.42209  -2.77209  2.96498
O    2.35325  0.39451  1.25876
H    3.14127  0.51638  1.82656
Hg    1.63304  -1.95881  -1.23936
