33
Energy: -18209.3322619 eV PBE+vdW (tier 2 basis)
C    -0.310028  -0.671802  -0.274779
C    -0.106771  -0.587121  1.226118
O    1.012490  -0.805986  1.711306
H    0.501169  -0.131387  -0.774984
H    -1.274707  -0.281811  -0.621307
H    -0.234379  -1.728350  -0.568390
N    -1.222272  -0.274822  1.938847
C    -1.565889  -0.297471  3.381029
C    -0.615761  0.331964  4.425799
O    -1.125835  0.720226  5.480509
H    -2.040004  -0.120432  1.360288
H    -2.429656  0.378759  3.433989
C    -2.092185  -1.675733  3.875419
C    -1.096968  -2.708147  4.427943
C    -0.015455  -3.264265  3.495319
C    -0.518220  -3.899468  2.200161
N    0.623444  -4.347619  1.392763
H    -2.693053  -2.109290  3.061003
H    -2.798169  -1.444431  4.685276
H    -1.703480  -3.544814  4.812634
H    -0.604173  -2.275412  5.312208
H    0.566072  -4.021395  4.042597
H    0.696662  -2.469403  3.233702
H    -1.179837  -3.187648  1.666321
H    -1.139479  -4.780039  2.431757
H    0.311647  -4.760338  0.513829
H    1.212995  -3.546962  1.156721
N    0.701069  0.400664  4.152255
C    1.639437  0.936046  5.120367
H    1.037596  -0.041988  3.284631
H    2.593627  1.128148  4.618145
H    1.809610  0.238352  5.954676
H    1.255038  1.872290  5.543389
