33
Energy: -18209.3969086 eV PBE+vdW (tier 2 basis)
C    -0.871037  -0.397253  -0.196704
C    -0.549169  0.407977  1.048317
O    0.463714  1.119196  1.091420
H    -1.831971  -0.924197  -0.156402
H    -0.071117  -1.133491  -0.348116
H    -0.864077  0.274917  -1.062923
N    -1.450613  0.292709  2.061379
C    -1.408373  0.765832  3.461693
C    -1.186862  2.272163  3.741003
O    -1.613064  2.718194  4.809642
H    -2.234472  -0.317914  1.864633
H    -2.443101  0.637348  3.808091
C    -0.555307  -0.140399  4.383707
C    0.946704  -0.293367  4.110231
C    1.834846  0.938355  4.343861
C    1.720856  1.583598  5.727865
N    2.001647  0.613233  6.796991
H    -1.009957  -1.142861  4.341536
H    -0.719616  0.219050  5.409593
H    1.107968  -0.649048  3.081848
H    1.295039  -1.099628  4.772068
H    1.636791  1.705216  3.583235
H    2.881997  0.631092  4.179485
H    0.700863  1.962828  5.884570
H    2.383945  2.471223  5.748249
H    1.829460  1.029980  7.711378
H    2.986253  0.342243  6.782429
N    -0.549257  3.015692  2.811606
C    -0.227184  4.406686  3.066403
H    -0.054646  2.502556  2.068164
H    -0.013629  4.906172  2.114916
H    0.648178  4.511368  3.728203
H    -1.075590  4.898569  3.555234
