33
Energy: -18208.8168321 eV PBE+vdW (tier 2 basis)
C    -0.109281  -0.235695  -0.301532
C    0.281945  0.055965  1.133458
O    1.455927  0.030361  1.495888
H    -0.686643  0.584878  -0.745863
H    -0.710254  -1.153197  -0.360400
H    0.810108  -0.377119  -0.875267
N    -0.707050  0.355205  2.041929
C    -2.172204  0.358764  1.937149
C    -2.703952  -1.097349  1.776486
O    -2.569541  -1.849138  2.741504
H    -0.334470  0.404086  2.985199
H    -2.491094  0.564045  2.967705
C    -2.735887  1.509404  1.085252
C    -4.222064  1.794485  1.353869
C    -4.502947  2.482272  2.694291
C    -5.995953  2.633728  2.998354
N    -6.645833  1.320742  3.113474
H    -2.575145  1.338689  0.014769
H    -2.138104  2.400011  1.335013
H    -4.812902  0.867060  1.317007
H    -4.610688  2.432603  0.544344
H    -4.034109  3.479128  2.709692
H    -4.037978  1.918807  3.521746
H    -6.482838  3.171311  2.169060
H    -6.112359  3.269903  3.897021
H    -6.319741  0.834628  3.950373
H    -7.654800  1.425625  3.214227
N    -3.278681  -1.578909  0.628637
C    -3.652671  -0.971368  -0.640945
H    -3.565641  -2.544211  0.764580
H    -4.012405  -1.772919  -1.295108
H    -2.801622  -0.498738  -1.144254
H    -4.461423  -0.234665  -0.538795
