33
Energy: -18209.1079243 eV PBE+vdW (tier 2 basis)
C    0.886844  0.415536  -0.104709
C    0.752801  -0.148724  1.299741
O    1.584160  -0.907425  1.788683
H    0.045136  1.049381  -0.412172
H    0.987290  -0.416185  -0.812814
H    1.811845  1.003220  -0.159800
N    -0.365478  0.248198  1.982686
C    -0.622554  -0.139338  3.360887
C    -0.991608  -1.623855  3.594661
O    -0.654562  -2.151764  4.651099
H    -1.008238  0.889788  1.533596
H    0.319308  -0.042448  3.921008
C    -1.690868  0.761369  4.009578
C    -1.214103  2.155922  4.450413
C    -0.821051  3.164983  3.358685
C    -1.919242  3.503795  2.346770
N    -3.091969  4.096371  2.995451
H    -2.046707  0.232885  4.904563
H    -2.565020  0.833014  3.338116
H    -0.354969  2.024446  5.126016
H    -2.005334  2.600010  5.075540
H    0.062911  2.804614  2.811507
H    -0.521781  4.100506  3.854594
H    -2.165494  2.605749  1.735906
H    -1.522691  4.245132  1.637942
H    -3.580576  3.411452  3.572320
H    -3.763006  4.424689  2.301943
N    -1.726325  -2.316457  2.671807
C    -2.325648  -1.899441  1.415781
H    -1.871689  -3.279640  2.957567
H    -3.085565  -2.640332  1.140422
H    -1.596931  -1.835196  0.594549
H    -2.836610  -0.932405  1.507496
