33
Energy: -18209.2701245 eV PBE+vdW (tier 2 basis)
C    0.297922  0.142165  0.000104
C    0.245495  0.109994  1.516819
O    1.256174  0.170867  2.211633
H    -0.689055  0.144132  -0.479315
H    0.859568  -0.734028  -0.347869
H    0.852229  1.034140  -0.315383
N    -1.010189  0.009846  2.058306
C    -1.220885  -0.127858  3.500611
C    -2.453265  -1.027534  3.707443
O    -2.351074  -2.214223  4.001001
H    -1.807549  -0.088648  1.441366
H    -0.367663  -0.698877  3.891309
C    -1.243661  1.244517  4.204613
C    -1.160557  1.199915  5.736220
C    -2.397065  0.666248  6.469365
C    -2.277959  0.730002  7.994175
N    -2.208100  2.115736  8.482646
H    -2.123596  1.832097  3.886520
H    -0.370360  1.791029  3.822113
H    -0.958931  2.227433  6.076631
H    -0.278802  0.602562  6.024138
H    -2.581002  -0.383065  6.194210
H    -3.285486  1.245042  6.166533
H    -1.420504  0.103335  8.312562
H    -3.176427  0.273816  8.434198
H    -2.336590  2.139319  9.493813
H    -1.286193  2.515945  8.307391
N    -3.657758  -0.419586  3.468648
C    -4.916518  -1.104600  3.702443
H    -3.669447  0.593611  3.432424
H    -5.684035  -0.722417  3.019126
H    -5.265079  -0.979706  4.739876
H    -4.764764  -2.173377  3.520542
