33
Energy: -18209.3927253 eV PBE+vdW (tier 2 basis)
C    -0.029690  -0.016511  0.654706
C    -0.129401  0.334659  2.131198
O    0.858669  0.294832  2.871934
H    1.022085  -0.197482  0.418568
H    -0.412272  0.792809  0.017567
H    -0.602406  -0.926652  0.421018
N    -1.350679  0.694904  2.613702
C    -2.642456  0.585037  1.963673
C    -3.015694  1.899830  1.241668
O    -3.081452  2.972124  1.832551
H    -1.378770  0.878276  3.631956
H    -2.615348  -0.238210  1.228576
C    -3.727701  0.270754  3.009836
C    -3.705920  -1.149136  3.600515
C    -2.533666  -1.588680  4.499439
C    -2.284248  -0.744459  5.760457
N    -1.414702  0.415726  5.493952
H    -4.706008  0.418189  2.527206
H    -3.666423  1.035278  3.797966
H    -3.789384  -1.873526  2.772378
H    -4.634442  -1.266360  4.183691
H    -1.598146  -1.653463  3.923558
H    -2.752218  -2.618114  4.822711
H    -1.875795  -1.399715  6.551074
H    -3.244016  -0.361879  6.141684
H    -1.424311  1.067995  6.277396
H    -0.443618  0.119523  5.366750
N    -3.281973  1.755726  -0.092760
C    -3.672047  2.866440  -0.939775
H    -3.172716  0.837612  -0.505617
H    -4.659114  2.697282  -1.392435
H    -2.938060  3.037386  -1.739836
H    -3.718106  3.758003  -0.304991
