33
Energy: -18209.4358189 eV PBE+vdW (tier 2 basis)
C    -1.202361  -0.794034  -0.773765
C    -0.884268  -0.321591  0.632902
O    -0.038942  0.536946  0.860298
H    -1.883819  -1.653425  -0.810514
H    -0.266085  -1.053888  -1.281420
H    -1.653763  0.038766  -1.328550
N    -1.601498  -0.939704  1.634734
C    -1.566444  -0.476489  3.016424
C    -0.882943  -1.460115  3.994340
O    -0.962186  -1.291858  5.209666
H    -2.367670  -1.545150  1.360915
H    -0.913896  0.411194  2.999669
C    -2.952322  -0.068279  3.538109
C    -3.987753  -1.198965  3.552176
C    -5.342554  -0.793366  4.147688
C    -5.303529  -0.490853  5.646655
N    -6.649941  -0.168546  6.137137
H    -3.319134  0.773106  2.930461
H    -2.797842  0.307768  4.557161
H    -3.583558  -2.054997  4.117349
H    -4.167875  -1.561891  2.525528
H    -6.062301  -1.611328  3.975817
H    -5.747691  0.084077  3.619093
H    -4.669003  0.386878  5.837096
H    -4.822679  -1.341158  6.170770
H    -6.615384  0.109841  7.117669
H    -7.250529  -0.993389  6.093047
N    -0.188297  -2.475145  3.413555
C    0.604582  -3.417240  4.176808
H    -0.148582  -2.483282  2.400694
H    1.681171  -3.266226  4.010400
H    0.346792  -4.452110  3.913829
H    0.386304  -3.250546  5.237259
