33
Energy: -18209.1463174 eV PBE+vdW (tier 2 basis)
C    0.192977  -1.497866  -0.173812
C    0.259662  -0.511684  0.978791
O    1.321907  -0.164457  1.485902
H    -0.820639  -1.664710  -0.559508
H    0.610102  -2.456230  0.160539
H    0.828669  -1.130596  -0.988423
N    -0.952180  -0.024444  1.404630
C    -1.058978  0.793217  2.618739
C    -2.458492  0.655988  3.239392
O    -2.588216  0.263506  4.396381
H    -1.787818  -0.492542  1.073795
H    -0.387039  0.354833  3.368146
C    -0.622909  2.258787  2.387501
C    -0.824938  3.176775  3.599243
C    -0.021195  2.787853  4.845562
C    -0.150285  3.814887  5.979487
N    0.568169  3.513223  7.221074
H    -1.155580  2.669202  1.518580
H    0.440965  2.227019  2.113128
H    -1.896415  3.224615  3.860364
H    -0.546524  4.199332  3.296284
H    1.042915  2.675980  4.575480
H    -0.354506  1.807776  5.220858
H    -1.214625  3.942184  6.235000
H    0.194837  4.799894  5.624625
H    1.565267  3.396946  7.032944
H    0.246514  2.623375  7.605486
N    -3.566486  0.942566  2.476330
C    -3.674106  1.706556  1.240592
H    -4.420428  0.840687  3.019262
H    -3.702706  2.793182  1.419666
H    -4.596944  1.416737  0.723504
H    -2.834846  1.493302  0.571132
