33
Energy: -18209.1978243 eV PBE+vdW (tier 2 basis)
C    -0.020771  1.444580  -0.053774
C    0.053236  0.383718  1.034421
O    1.049767  -0.318366  1.188224
H    -0.112141  2.452930  0.375423
H    -0.875402  1.289818  -0.726990
H    0.904184  1.392586  -0.633753
N    -1.036336  0.255190  1.855277
C    -2.320862  0.930685  1.754648
C    -2.850949  1.067219  3.193278
O    -2.876664  0.086226  3.935276
H    -0.974020  -0.472864  2.565074
H    -2.158176  1.919162  1.306685
C    -3.332611  0.143561  0.892121
C    -4.663213  0.867039  0.662579
C    -5.699062  0.053659  -0.124585
C    -5.316760  -0.237424  -1.575959
N    -6.431169  -0.892051  -2.275112
H    -3.508564  -0.826069  1.383248
H    -2.839621  -0.073662  -0.066514
H    -4.478757  1.820445  0.136686
H    -5.104587  1.133573  1.635886
H    -6.659467  0.590401  -0.130978
H    -5.883631  -0.899131  0.401308
H    -4.374784  -0.818700  -1.608378
H    -5.115436  0.715430  -2.092113
H    -6.189047  -1.061906  -3.251469
H    -6.614323  -1.808798  -1.863371
N    -3.297033  2.288081  3.603795
C    -3.269372  3.552098  2.883360
H    -3.628456  2.291914  4.563688
H    -3.668908  4.329253  3.543190
H    -3.894399  3.530266  1.980116
H    -2.247884  3.847524  2.603128
