33
Energy: -18209.3409168 eV PBE+vdW (tier 2 basis)
C    -0.511219  0.456207  -0.669669
C    -0.036945  0.619079  0.766384
O    1.035221  1.155882  1.035515
H    -1.461982  0.981640  -0.841326
H    -0.662312  -0.598329  -0.937640
H    0.251784  0.883700  -1.325124
N    -0.860149  0.150894  1.756378
C    -2.160988  -0.472898  1.634660
C    -2.926070  -0.165631  2.940591
O    -2.341219  0.178073  3.965260
H    -0.576892  0.359934  2.714228
H    -2.712600  -0.016742  0.796529
C    -2.091489  -2.004066  1.390340
C    -1.448739  -2.800127  2.526120
C    -1.301917  -4.286508  2.195315
C    -0.655989  -5.090062  3.322475
N    -0.574010  -6.513024  2.966970
H    -1.525980  -2.166999  0.459829
H    -3.109329  -2.381038  1.195573
H    -2.045839  -2.685191  3.445340
H    -0.459941  -2.370887  2.751493
H    -0.695122  -4.398461  1.279458
H    -2.283987  -4.730895  1.967478
H    -1.279402  -5.009914  4.226810
H    0.322028  -4.633498  3.575393
H    0.078871  -6.646544  2.192993
H    -0.205111  -7.055245  3.748225
N    -4.273705  -0.344700  2.868250
C    -5.153936  -0.179275  4.010760
H    -4.676869  -0.610610  1.977890
H    -5.900093  0.605471  3.825774
H    -4.534282  0.114526  4.864061
H    -5.673842  -1.116920  4.251705
