33
Energy: -18209.387864 eV PBE+vdW (tier 2 basis)
C    -2.480950  -2.443165  1.480645
C    -1.518498  -1.834587  2.481470
O    -0.685913  -2.500342  3.090870
H    -3.516817  -2.379652  1.843788
H    -2.216488  -3.495841  1.353573
H    -2.440806  -1.934189  0.507895
N    -1.602236  -0.472384  2.676897
C    -2.562551  0.471266  2.119403
C    -2.116081  1.141213  0.797079
O    -2.883973  1.887474  0.193749
H    -0.980234  -0.134082  3.407786
H    -3.483590  -0.072353  1.860431
C    -2.922161  1.546886  3.155947
C    -3.756222  1.011167  4.323318
C    -4.057063  2.051392  5.412233
C    -2.837438  2.555925  6.189132
N    -2.198999  1.472831  6.949073
H    -3.470446  2.340269  2.630064
H    -1.985163  2.006093  3.516100
H    -3.264997  0.133601  4.774509
H    -4.711399  0.634858  3.923547
H    -4.762078  1.612159  6.133690
H    -4.562832  2.918058  4.956361
H    -3.178736  3.307519  6.915742
H    -2.147879  3.086390  5.501691
H    -1.753586  0.797926  6.326621
H    -1.459746  1.841852  7.546425
N    -0.857113  0.839569  0.383780
C    -0.281977  1.370976  -0.835660
H    -0.325237  0.194042  0.957887
H    -0.029115  0.566248  -1.540014
H    0.625041  1.954371  -0.625117
H    -1.029135  2.026508  -1.296027
