33
Energy: -18209.3506194 eV PBE+vdW (tier 2 basis)
C    0.092455  0.378344  -0.855891
C    0.097939  0.450076  0.659103
O    1.106190  0.833512  1.266837
H    -0.873452  0.093460  -1.289965
H    0.849806  -0.351384  -1.169855
H    0.394016  1.353703  -1.255872
N    -1.067448  0.083773  1.260702
C    -1.404025  -0.126885  2.684154
C    -1.162200  1.018686  3.694505
O    -1.885423  1.040919  4.696403
H    -1.807713  -0.187744  0.624891
H    -2.501207  -0.177437  2.685347
C    -0.933290  -1.502107  3.222559
C    0.565141  -1.837070  3.209515
C    1.487683  -1.151356  4.229578
C    1.170545  -1.430747  5.719941
N    0.324823  -0.484619  6.449969
H    -1.451624  -2.261164  2.615321
H    -1.352498  -1.599994  4.235095
H    0.965865  -1.667330  2.199151
H    0.640471  -2.925090  3.374021
H    1.520672  -0.065341  4.061154
H    2.508052  -1.509990  4.018044
H    2.120003  -1.495575  6.272296
H    0.712790  -2.430676  5.809356
H    -0.568731  -0.314899  5.985772
H    0.780880  0.426315  6.506502
N    -0.186443  1.912161  3.436939
C    0.148533  2.962538  4.377676
H    0.459299  1.682878  2.666639
H    0.431107  3.873512  3.836186
H    0.986712  2.669919  5.030732
H    -0.722853  3.164731  5.009014
