33
Energy: -18209.6815474 eV PBE+vdW (tier 2 basis)
C    0.780161  0.862375  0.513281
C    -0.537283  0.541434  1.189090
O    -1.392748  1.416200  1.392194
H    1.244318  1.717412  1.019345
H    0.581130  1.164428  -0.523378
H    1.475627  0.014431  0.506571
N    -0.709256  -0.764667  1.529645
C    -1.901673  -1.206800  2.247347
C    -1.670720  -1.012851  3.765813
O    -1.371039  -1.924522  4.543212
H    0.123897  -1.368035  1.654777
H    -2.691968  -0.497583  1.963105
C    -2.365371  -2.618252  1.828747
C    -1.323239  -3.676762  1.426138
C    -0.488623  -4.328610  2.552699
C    1.005413  -4.009917  2.514236
N    1.253036  -2.569267  2.720716
H    -3.027851  -2.477389  0.961725
H    -2.996089  -3.015480  2.637846
H    -0.654515  -3.253693  0.659703
H    -1.883050  -4.467392  0.905829
H    -0.588472  -5.422393  2.496027
H    -0.888839  -4.029110  3.531907
H    1.420373  -4.282061  1.530368
H    1.522939  -4.636769  3.263652
H    0.875756  -2.297917  3.633496
H    2.255589  -2.380450  2.743872
N    -1.803788  0.288005  4.140063
C    -1.499799  0.752702  5.478356
H    -1.925699  0.967605  3.385224
H    -2.272453  1.450333  5.826225
H    -0.523681  1.260449  5.523132
H    -1.472081  -0.116453  6.144036
