33
Energy: -18209.2630436 eV PBE+vdW (tier 2 basis)
C    0.519302  0.236496  0.100970
C    -0.648841  -0.115001  1.008133
O    -1.550371  -0.862697  0.645480
H    0.987711  -0.693823  -0.242190
H    1.282437  0.865574  0.576222
H    0.131521  0.753167  -0.786101
N    -0.599265  0.454263  2.260470
C    -1.713091  0.403475  3.215878
C    -1.416041  1.270895  4.447126
O    -2.320045  1.829365  5.059203
H    0.042557  1.232480  2.368832
H    -2.611470  0.847599  2.760386
C    -2.089637  -1.032582  3.655927
C    -0.966199  -1.857314  4.286339
C    -1.396304  -3.297355  4.576662
C    -0.299764  -4.130451  5.236950
N    -0.754353  -5.508193  5.461901
H    -2.475628  -1.551856  2.769969
H    -2.926414  -0.928883  4.363057
H    -0.627154  -1.388472  5.225591
H    -0.095492  -1.871720  3.609436
H    -1.706993  -3.794631  3.645253
H    -2.285043  -3.286616  5.231678
H    0.038773  -3.614111  6.159230
H    0.573622  -4.175506  4.566910
H    -0.006479  -6.072700  5.864754
H    -1.521547  -5.522264  6.135767
N    -0.097305  1.365062  4.813312
C    0.301437  2.039113  6.037012
H    0.550397  0.701174  4.401602
H    -0.409625  2.848781  6.229624
H    1.308635  2.456717  5.922315
H    0.289669  1.362014  6.905303
