33
Energy: -18209.5089699 eV PBE+vdW (tier 2 basis)
C    0.794177  -0.618910  -0.148524
C    -0.443194  -0.569529  0.728390
O    -1.519442  -1.052789  0.374389
H    1.041257  -1.668634  -0.350939
H    1.667730  -0.125511  0.294692
H    0.562305  -0.146443  -1.110953
N    -0.276814  0.033789  1.941127
C    -1.382075  0.249273  2.850426
C    -1.011540  1.464912  3.718031
O    0.134225  1.917203  3.744613
H    0.569469  0.551003  2.172112
H    -2.276781  0.481391  2.248930
C    -1.702605  -1.002539  3.704014
C    -0.587807  -1.405610  4.671820
C    -0.891310  -2.675434  5.479537
C    -0.902344  -3.973586  4.655479
N    -1.126146  -5.213915  5.404438
H    -1.925434  -1.809354  2.992622
H    -2.635119  -0.823113  4.265144
H    -0.392683  -0.576198  5.369953
H    0.347738  -1.548411  4.107048
H    -1.861880  -2.566676  5.995069
H    -0.135522  -2.779074  6.275646
H    0.059147  -4.070361  4.125505
H    -1.672051  -3.922706  3.871147
H    -2.037831  -5.192719  5.863760
H    -0.433313  -5.310002  6.148735
N    -2.032310  1.970275  4.461041
C    -1.868155  3.080607  5.380596
H    -2.949663  1.552753  4.359264
H    -0.816775  3.383757  5.347905
H    -2.124316  2.786523  6.407922
H    -2.493938  3.935027  5.088059
