33
Energy: -18209.5443547 eV PBE+vdW (tier 2 basis)
C    2.148907  -0.134823  2.513782
C    0.683194  -0.256121  2.161129
O    0.268778  -0.087697  1.009731
H    2.657999  -1.019306  2.104167
H    2.337599  -0.081854  3.593144
H    2.563194  0.752398  2.022568
N    -0.135717  -0.628299  3.186848
C    -1.572113  -0.760233  3.040926
C    -2.212774  -0.157954  4.300581
O    -1.632117  -0.181002  5.386457
H    0.201653  -0.634041  4.146276
H    -1.849367  -0.185260  2.143406
C    -2.052545  -2.222108  2.858198
C    -1.399218  -2.952407  1.669715
C    -0.139650  -3.756596  2.035865
C    0.713009  -4.153183  0.828771
N    1.547305  -3.029785  0.377931
H    -3.144924  -2.191111  2.725379
H    -1.873218  -2.775682  3.793982
H    -1.168751  -2.213921  0.887507
H    -2.133547  -3.642963  1.227511
H    -0.446735  -4.665186  2.577840
H    0.496120  -3.182611  2.725612
H    0.049630  -4.563619  0.038685
H    1.391030  -4.969797  1.120085
H    0.980438  -2.208067  0.154187
H    2.050245  -3.276839  -0.474003
N    -3.463343  0.349005  4.125486
C    -4.258777  0.887440  5.213192
H    -3.842735  0.364876  3.186382
H    -4.492149  1.948145  5.047240
H    -3.668243  0.793605  6.130350
H    -5.198179  0.329998  5.333069
