33
Energy: -18208.9310876 eV PBE+vdW (tier 2 basis)
C    -0.031975  -0.357091  0.613627
C    -0.372257  -0.688338  2.053431
O    0.464059  -1.219103  2.784286
H    -0.101733  0.719787  0.417906
H    -0.688622  -0.869486  -0.099636
H    0.997235  -0.684697  0.445556
N    -1.609291  -0.381272  2.581271
C    -2.899010  0.133438  2.099555
C    -4.018709  -0.917762  2.315334
O    -4.959209  -0.655723  3.064507
H    -1.630120  -0.647577  3.564006
H    -3.194571  0.928175  2.801712
C    -2.944685  0.738190  0.691185
C    -4.318982  1.342604  0.364912
C    -4.556417  1.540356  -1.137193
C    -4.600105  0.234878  -1.958728
N    -5.558283  -0.792070  -1.541532
H    -2.692530  -0.019347  -0.060356
H    -2.175375  1.519254  0.610746
H    -4.429583  2.304120  0.887516
H    -5.118793  0.703820  0.769545
H    -3.776963  2.195538  -1.563009
H    -5.511024  2.073989  -1.272893
H    -3.603581  -0.234874  -1.974269
H    -4.815378  0.488320  -3.007540
H    -6.510006  -0.422241  -1.554084
H    -5.379236  -1.090866  -0.581627
N    -3.972800  -2.116435  1.653076
C    -2.911873  -2.714699  0.854348
H    -4.736881  -2.725144  1.931507
H    -3.274843  -3.677314  0.479667
H    -1.995360  -2.890927  1.433732
H    -2.664891  -2.102692  -0.022248
