33
Energy: -18209.0438917 eV PBE+vdW (tier 2 basis)
C    -0.138714  -0.784866  -0.048566
C    0.072308  -0.404154  1.407383
O    1.187740  -0.224223  1.884468
H    0.429773  -0.091778  -0.679675
H    -1.189474  -0.781399  -0.364865
H    0.274942  -1.788691  -0.210709
N    -1.073715  -0.262125  2.145387
C    -1.092803  -0.030383  3.591178
C    -0.093617  1.078049  4.022801
O    0.719577  0.900897  4.922527
H    -1.955826  -0.488770  1.702402
H    -2.097839  0.375633  3.802678
C    -0.910621  -1.325048  4.413169
C    -1.919056  -1.493095  5.560260
C    -1.778793  -0.542980  6.759637
C    -0.494539  -0.716070  7.577154
N    -0.387685  -2.079575  8.133114
H    0.123827  -1.353845  4.780525
H    -1.028995  -2.169693  3.720316
H    -1.862579  -2.529910  5.927515
H    -2.938895  -1.392227  5.149720
H    -2.639136  -0.709565  7.426362
H    -1.834343  0.506588  6.427696
H    -0.536206  -0.019268  8.427030
H    0.371902  -0.415055  6.965381
H    -0.063749  -2.728539  7.414604
H    0.328610  -2.098311  8.858961
N    -0.228065  2.308585  3.437827
C    -1.093897  2.736010  2.356018
H    0.493801  2.954369  3.741319
H    -1.194987  3.827160  2.401412
H    -2.099687  2.310868  2.461751
H    -0.706054  2.463929  1.361712
