33
Energy: -18209.1066945 eV PBE+vdW (tier 2 basis)
C    -0.240470  -0.356526  -0.076354
C    -0.175198  -0.018088  1.399532
O    0.913611  0.048794  1.979377
H    -0.864007  0.340475  -0.649548
H    -0.652352  -1.363352  -0.227526
H    0.783134  -0.334711  -0.459441
N    -1.328192  0.169204  2.128934
C    -2.703356  0.510383  1.744573
C    -3.161347  -0.019605  0.372154
O    -3.402525  0.727545  -0.574629
H    -1.095786  0.590541  3.044400
H    -3.349348  -0.007530  2.477145
C    -2.995628  2.017195  1.905316
C    -1.969497  2.991939  1.290198
C    -1.179683  3.847635  2.295922
C    -0.039172  3.171592  3.065909
N    -0.499371  2.205202  4.086816
H    -3.077012  2.212441  2.983927
H    -3.990998  2.198819  1.478938
H    -2.502512  3.670313  0.610775
H    -1.260703  2.448801  0.648458
H    -1.881007  4.313341  3.011656
H    -0.726558  4.687461  1.745744
H    0.594806  3.963776  3.505938
H    0.598960  2.613119  2.366243
H    -0.964548  2.694739  4.853203
H    0.311778  1.732263  4.488205
N    -3.342765  -1.369947  0.272974
C    -3.172178  -2.377571  1.306832
H    -3.701266  -1.661632  -0.631219
H    -2.939076  -3.339154  0.834328
H    -4.078564  -2.507748  1.919977
H    -2.334086  -2.115716  1.962863
