33
Energy: -18209.4489415 eV PBE+vdW (tier 2 basis)
C    1.479573  0.744450  3.806913
C    0.643943  -0.347627  4.449945
O    1.043970  -1.014192  5.398528
H    0.900517  1.432045  3.177719
H    2.263811  0.279047  3.194185
H    1.979849  1.313977  4.597706
N    -0.585125  -0.561639  3.862002
C    -1.586344  -1.463041  4.421100
C    -1.831003  -2.737506  3.582268
O    -2.773178  -3.483830  3.838537
H    -0.900908  0.116311  3.175333
H    -1.158340  -1.820167  5.372424
C    -2.902330  -0.721065  4.686083
C    -2.803863  0.322074  5.815947
C    -3.517630  1.645911  5.509854
C    -2.831802  2.485914  4.417453
N    -1.479407  2.978298  4.709752
H    -3.668017  -1.473384  4.909193
H    -3.219568  -0.244495  3.742659
H    -1.745171  0.531536  6.041638
H    -3.209691  -0.108544  6.741990
H    -3.580997  2.249684  6.429797
H    -4.557638  1.442709  5.202854
H    -3.456407  3.359632  4.182135
H    -2.782149  1.905613  3.480694
H    -0.895235  2.223000  5.071452
H    -1.514829  3.680185  5.450480
N    -0.929884  -2.966583  2.589250
C    -0.948026  -4.167358  1.778559
H    -0.162033  -2.310420  2.504405
H    -0.087034  -4.814894  1.999413
H    -0.940963  -3.920074  0.708354
H    -1.868090  -4.712570  2.015378
