33
Energy: -18209.1192312 eV PBE+vdW (tier 2 basis)
C    -1.334312  0.550400  2.558229
C    -2.789572  0.964776  2.559214
O    -3.222094  1.758171  3.402941
H    -0.827078  1.130539  3.333247
H    -0.853203  0.731341  1.588667
H    -1.224410  -0.519350  2.778903
N    -3.660708  0.438496  1.633392
C    -3.434653  -0.164855  0.313039
C    -2.188157  -1.065332  0.204353
O    -1.243344  -0.800637  -0.536892
H    -4.535025  0.981516  1.634460
H    -4.283640  -0.859511  0.173280
C    -3.544064  0.848041  -0.844676
C    -2.655098  2.101907  -0.839909
C    -2.996679  3.261294  0.119199
C    -4.465834  3.707209  0.179678
N    -5.248190  2.916651  1.152490
H    -4.600075  1.152298  -0.901314
H    -3.335447  0.287100  -1.767281
H    -2.699485  2.504704  -1.864820
H    -1.607636  1.804242  -0.691577
H    -2.397002  4.125534  -0.204789
H    -2.659811  3.051190  1.143958
H    -4.936149  3.588015  -0.810072
H    -4.495118  4.788784  0.407124
H    -6.217863  3.234019  1.165349
H    -4.876167  3.070346  2.094743
N    -2.204973  -2.217521  0.940392
C    -3.280670  -2.745139  1.764359
H    -1.393381  -2.805405  0.775277
H    -3.783974  -1.934031  2.302760
H    -2.856255  -3.429245  2.508458
H    -4.027793  -3.300863  1.174626
