33
Energy: -18209.2972691 eV PBE+vdW (tier 2 basis)
C    0.164808  -0.778215  0.068077
C    -0.033822  -0.452017  1.537281
O    0.612000  -0.999048  2.426778
H    -0.439161  -0.162475  -0.610104
H    -0.084389  -1.834782  -0.092717
H    1.225090  -0.650311  -0.180917
N    -0.980898  0.504609  1.804269
C    -1.379190  0.822060  3.180330
C    -2.805983  1.400444  3.150880
O    -3.745552  0.872857  3.739569
H    -1.579179  0.818334  1.049022
H    -1.445509  -0.122615  3.737958
C    -0.338403  1.735540  3.875747
C    -0.328258  1.668128  5.412785
C    -1.655586  1.956345  6.131353
C    -2.248776  3.351755  5.875555
N    -3.655336  3.529867  6.254646
H    -0.463556  2.774517  3.529482
H    0.647731  1.411780  3.518669
H    0.446554  2.365529  5.770768
H    0.016535  0.663785  5.703871
H    -1.505681  1.824097  7.215082
H    -2.403816  1.204225  5.839538
H    -2.170211  3.602383  4.807154
H    -1.653495  4.116690  6.398768
H    -3.766939  3.402990  7.261959
H    -4.215431  2.795206  5.815539
N    -2.955360  2.533731  2.396497
C    -4.209830  3.270299  2.371130
H    -2.115977  3.019892  2.099625
H    -4.261411  3.873254  1.457628
H    -4.317687  3.929007  3.247209
H    -5.037418  2.553606  2.379697
