33
Energy: -18209.2316305 eV PBE+vdW (tier 2 basis)
C    -0.326276  -0.312961  0.468036
C    -0.073721  -0.508586  1.951975
O    0.736228  -1.326752  2.376804
H    -1.393200  -0.388609  0.214549
H    0.227551  -1.083936  -0.073495
H    0.027675  0.675301  0.141421
N    -0.815493  0.261343  2.818499
C    -1.682420  1.371345  2.479167
C    -0.893607  2.600157  1.956189
O    0.264541  2.832212  2.284932
H    -0.516236  0.172063  3.784848
H    -2.359051  1.036576  1.675296
C    -2.574634  1.775681  3.680818
C    -1.951368  2.683155  4.752336
C    -0.765706  2.103550  5.529682
C    -0.302889  3.020913  6.660409
N    0.811721  2.410744  7.394359
H    -2.944910  0.843920  4.136772
H    -3.460458  2.288418  3.277300
H    -2.754033  2.939126  5.463450
H    -1.647445  3.635942  4.289510
H    0.084175  1.946636  4.846193
H    -1.027171  1.124103  5.963372
H    -1.130078  3.169258  7.373083
H    -0.069334  4.018168  6.234918
H    1.624303  2.313198  6.783297
H    1.102557  3.008666  8.167732
N    -1.619043  3.409264  1.128379
C    -1.100508  4.652430  0.589162
H    -2.560254  3.126456  0.882479
H    -1.091538  4.637291  -0.509445
H    -0.072589  4.761483  0.950943
H    -1.692281  5.514254  0.928534
