 29
Energy: -26511.91675815.7 eV PBE+vdW (tier 2 basis)
C   -3.828873    0.818968   1.098358
C   -2.407633    0.883754   1.628792
O   -1.589538    1.706597   1.222303
H   -3.794738    0.527178   0.040700
H   -4.271114    1.821010   1.146421
H   -4.472373    0.113526   1.638808
N   -2.098421   -0.033924   2.595527
C   -0.737163   -0.198529   3.099653
C   -0.558473   -1.598699   3.714427
O    0.395927   -2.304045   3.399292
H   -2.780102   -0.740948   2.844909
H   -0.057499   -0.194275   2.237938
C   -0.263736    0.956444   4.040475
C   -1.342901    1.729418   4.794544
S   -2.096449    0.798230   6.178130
C   -3.557324    1.825548   6.480467
H    0.249780    1.692127   3.407739
H    0.492081    0.558102   4.733788
H   -2.148790    2.018215   4.106975
H   -0.905323    2.648402   5.207764
H   -4.207513    1.860420   5.597224
H   -3.264872    2.843054   6.768404
H   -4.104662    1.366628   7.311619
N   -1.530758   -1.996382   4.588603
C   -1.413837   -3.259981   5.297738
H   -2.085171   -1.256585   5.033810
H   -1.096667   -4.039715   4.596971
H   -2.389075   -3.526426   5.720435
H   -0.670782   -3.214112   6.109187
