 29
Energy: -26511.93035415.7 eV PBE+vdW (tier 2 basis)
C   -0.197588   -0.112616  -0.120661
C   -0.078151    0.186097   1.361988
O    0.937772    0.680571   1.853469
H   -1.157004   -0.562495  -0.403696
H    0.615876   -0.789569  -0.409491
H   -0.060555    0.820968  -0.680439
N   -1.173491   -0.129293   2.111753
C   -1.210717    0.071845   3.550475
C   -2.114324   -1.043290   4.098028
O   -3.161048   -1.321364   3.506156
H   -2.002397   -0.553923   1.705039
H   -0.175378   -0.009590   3.907004
C   -1.730684    1.493005   3.880415
C   -1.514143    1.989397   5.311008
S   -2.795993    1.390054   6.469691
C   -2.211711    2.191045   7.987889
H   -2.792860    1.559809   3.600855
H   -1.179948    2.169154   3.211527
H   -1.549109    3.088008   5.320325
H   -0.520831    1.688465   5.679360
H   -2.918069    1.919995   8.780946
H   -2.202310    3.283725   7.881491
H   -1.210601    1.838664   8.269993
N   -1.713292   -1.737532   5.196862
C   -0.608816   -1.463892   6.099612
H   -2.418974   -2.396409   5.515020
H   -0.344565   -2.389903   6.623367
H   -0.873763   -0.694947   6.843197
H    0.276842   -1.134555   5.545519
