 29
Energy: -26512.12397915.7 eV PBE+vdW (tier 2 basis)
C   -3.226733   -2.121262  -0.670269
C   -2.418240   -2.039602   0.607112
O   -1.199873   -1.829443   0.597187
H   -2.809682   -2.913225  -1.304442
H   -3.117138   -1.175036  -1.214771
H   -4.293624   -2.316102  -0.506558
N   -3.116052   -2.202007   1.767057
C   -2.489690   -2.126982   3.088225
C   -1.873351   -3.501427   3.469669
O   -2.396218   -4.255208   4.287790
H   -4.089658   -2.481737   1.720690
H   -1.666782   -1.402459   2.986762
C   -3.486482   -1.647447   4.142474
C   -3.945314   -0.206916   3.915167
S   -5.108325    0.433365   5.161824
C   -6.601327   -0.517756   4.768536
H   -3.014733   -1.735158   5.129611
H   -4.341465   -2.340044   4.166883
H   -4.391663   -0.071981   2.918335
H   -3.088671    0.480799   3.971268
H   -6.472099   -1.590262   4.958327
H   -6.912946   -0.353665   3.728241
H   -7.388505   -0.141187   5.432039
N   -0.720633   -3.763390   2.797404
C   -0.023987   -5.029921   2.908384
H   -0.462012   -3.104969   2.059234
H   -0.163541   -5.650631   2.010313
H   -0.430456   -5.567285   3.771608
H    1.051199   -4.866061   3.057900
