 29
Energy: -26512.05243515.7 eV PBE+vdW (tier 2 basis)
C    2.311005   -0.370891   1.885533
C    1.657103    0.127226   3.159167
O    2.240593    0.857830   3.961974
H    3.328785   -0.705301   2.114940
H    2.386395    0.469178   1.181797
H    1.756350   -1.182619   1.399540
N    0.365261   -0.271111   3.342228
C   -0.416884    0.160570   4.477342
C   -1.464479   -0.926315   4.762296
O   -1.839829   -1.709204   3.890294
H   -0.107137   -0.886839   2.685696
H    0.274972    0.259555   5.328704
C   -1.080951    1.546725   4.267568
C   -2.189835    1.617889   3.216122
S   -1.559189    1.492174   1.503280
C   -3.102978    1.820733   0.614032
H   -0.278748    2.259695   4.029502
H   -1.509539    1.870922   5.229374
H   -2.699725    2.588247   3.305972
H   -2.938241    0.826814   3.376887
H   -3.502664    2.814299   0.857802
H   -3.857382    1.052479   0.827864
H   -2.863131    1.789894  -0.455134
N   -1.967936   -0.913959   6.028140
C   -3.010027   -1.820756   6.472229
H   -1.557785   -0.275266   6.699041
H   -2.642761   -2.499861   7.254348
H   -3.320042   -2.415117   5.606569
H   -3.877200   -1.267990   6.858896
