 29
Energy: -26511.97880215.7 eV PBE+vdW (tier 2 basis)
C    0.547714    0.858741   0.569975
C    0.332239    0.270969   1.953843
O    1.268920   -0.057008   2.681121
H    1.243286    1.702839   0.648476
H   -0.375429    1.197532   0.083196
H    1.025251    0.100140  -0.063370
N   -0.974229    0.140655   2.335475
C   -1.357423   -0.518896   3.583934
C   -2.802806   -1.037892   3.529171
O   -3.104024   -2.123784   4.015763
H   -1.701157    0.354000   1.663937
H   -0.730365   -1.414581   3.687128
C   -1.091366    0.339627   4.847252
C   -2.082877    1.447108   5.214988
S   -2.484078    2.719740   3.962168
C   -0.851443    3.421687   3.603075
H   -0.073833    0.740608   4.752455
H   -1.063270   -0.354221   5.701931
H   -1.721541    1.966409   6.114411
H   -3.067275    1.028091   5.470070
H   -0.388097    3.806364   4.520048
H   -1.021105    4.258677   2.916137
H   -0.188397    2.692395   3.125645
N   -3.706376   -0.215496   2.911816
C   -5.119844   -0.554426   2.885645
H   -3.449896    0.772087   2.822364
H   -5.603139   -0.403540   3.863701
H   -5.233012   -1.610269   2.617139
H   -5.624443    0.066433   2.137289
