 29
Energy: -26512.00734115.7 eV PBE+vdW (tier 2 basis)
C   -0.214583    0.495763  -0.073947
C    0.300005    0.638337   1.346935
O    1.316704    1.274492   1.619535
H    0.522148   -0.070485  -0.658261
H   -0.292237    1.492635  -0.523720
H   -1.186534   -0.008009  -0.145128
N   -0.447669    0.016555   2.308906
C   -0.014208   -0.052823   3.702384
C   -0.741181   -1.189946   4.443221
O   -0.116429   -1.987439   5.138001
H   -1.238779   -0.552667   2.031985
H    1.041442   -0.353619   3.714211
C   -0.096997    1.307596   4.461159
C   -1.125298    2.329352   3.978174
S   -2.902123    1.913024   4.075984
C   -3.136234    1.769480   5.869182
H    0.881356    1.796900   4.356008
H   -0.222373    1.098753   5.533793
H   -0.970447    2.554156   2.914948
H   -0.980145    3.272352   4.524491
H   -4.205105    1.589425   6.031579
H   -2.854207    2.702188   6.373233
H   -2.568406    0.930667   6.291044
N   -2.092985   -1.250644   4.260709
C   -2.894820   -2.221497   4.985493
H   -2.553832   -0.385327   3.949021
H   -3.899856   -2.250937   4.550164
H   -2.974125   -1.980243   6.057698
H   -2.436081   -3.213039   4.902196
