 29
Energy: -26512.09208915.7 eV PBE+vdW (tier 2 basis)
C   -1.327643   -0.738506  -0.540608
C   -0.921895   -0.697756   0.917352
O    0.264888   -0.678261   1.265158
H   -0.880153    0.122343  -1.052610
H   -2.412939   -0.723163  -0.698073
H   -0.911220   -1.643881  -0.999624
N   -1.941882   -0.679940   1.820746
C   -1.726775   -0.612454   3.267047
C   -1.474860   -2.032028   3.848351
O   -2.311037   -2.626310   4.524962
H   -2.893849   -0.800081   1.492117
H   -0.805872   -0.024706   3.405712
C   -2.901830    0.076645   3.957589
C   -2.997766    1.560565   3.608265
S   -4.504000    2.271134   4.352523
C   -4.333238    3.991632   3.805583
H   -2.787518   -0.052722   5.041675
H   -3.836085   -0.445991   3.698642
H   -3.036962    1.710528   2.518765
H   -2.118842    2.101429   3.991224
H   -5.202245    4.533068   4.196877
H   -4.335089    4.066177   2.710269
H   -3.421109    4.450464   4.208619
N   -0.249562   -2.521558   3.519729
C    0.173122   -3.864248   3.865566
H    0.308549   -1.963513   2.869252
H    1.157902   -3.848277   4.351359
H    0.230274   -4.511041   2.977353
H   -0.562990   -4.283488   4.559531
