 29
Energy: -26512.23683615.7 eV PBE+vdW (tier 2 basis)
C    2.272876   -0.493835   2.812717
C    1.244361   -0.212108   3.887283
O    1.413064   -0.575663   5.062119
H    2.465574   -1.573150   2.777649
H    3.214427   -0.003463   3.091099
H    1.969503   -0.145845   1.818127
N    0.136287    0.453582   3.479728
C   -0.911325    0.933247   4.383787
C   -1.927998   -0.173849   4.790232
O   -3.140653   -0.064080   4.595198
H    0.018087    0.706483   2.493707
H   -0.401239    1.226118   5.317048
C   -1.580393    2.184296   3.799873
C   -2.457289    2.049670   2.546535
S   -1.693124    1.343353   1.031816
C   -2.237643   -0.388745   1.122156
H   -0.785077    2.922646   3.616630
H   -2.224500    2.608330   4.584881
H   -2.791133    3.052339   2.248030
H   -3.347176    1.450323   2.766757
H   -1.792164   -0.923137   1.969316
H   -1.910940   -0.859773   0.187501
H   -3.330170   -0.442836   1.188223
N   -1.340896   -1.234616   5.395884
C   -2.088744   -2.385254   5.859989
H   -0.322611   -1.187902   5.526883
H   -3.137945   -2.249018   5.577108
H   -2.027191   -2.484578   6.953329
H   -1.708969   -3.310535   5.404396
