 29
Energy: -26512.14566015.7 eV PBE+vdW (tier 2 basis)
C   -0.733021    0.794580  -0.486680
C   -0.504505   -0.089688   0.720421
O    0.279854   -1.045758   0.690669
H    0.224037    1.248230  -0.773985
H   -1.467863    1.591244  -0.318321
H   -1.063806    0.171276  -1.326444
N   -1.199377    0.241946   1.844511
C   -1.084392   -0.502477   3.099534
C   -2.050510   -1.716444   3.091692
O   -3.106351   -1.727520   3.721373
H   -1.910588    0.962538   1.785654
H   -0.056160   -0.890483   3.134675
C   -1.324659    0.404283   4.299772
C   -0.316976    1.546417   4.453428
S    1.416301    1.045298   4.764046
C    2.141527    1.077843   3.096465
H   -1.309371   -0.223369   5.200663
H   -2.346045    0.817724   4.248371
H   -0.596539    2.156841   5.322441
H   -0.317024    2.218513   3.583067
H    3.220726    0.946783   3.240267
H    1.971863    2.051516   2.619128
H    1.774683    0.271548   2.451560
N   -1.602101   -2.736216   2.311104
C   -2.381420   -3.933213   2.064733
H   -0.762332   -2.555796   1.758530
H   -1.770384   -4.831834   2.221966
H   -2.780158   -3.953917   1.039243
H   -3.220956   -3.941359   2.767826
