 29
Energy: -26512.00061815.7 eV PBE+vdW (tier 2 basis)
C    0.105662    0.683741   0.722193
C    0.312657   -0.417270   1.744890
O    1.258388   -1.194979   1.690688
H    0.905010    1.426776   0.842294
H   -0.863088    1.192105   0.807553
H    0.203931    0.258290  -0.283100
N   -0.649330   -0.489299   2.731638
C   -0.495755   -1.348804   3.898555
C   -1.545992   -2.478698   3.991758
O   -1.683580   -3.123456   5.028957
H   -1.325495    0.265095   2.784328
H    0.467844   -1.860321   3.741164
C   -0.411415   -0.554718   5.212680
C   -1.690888    0.203223   5.566779
S   -1.414202    1.182315   7.078235
C   -3.075948    1.863504   7.315417
H    0.435735    0.142450   5.136451
H   -0.185007   -1.267023   6.016021
H   -2.514003   -0.504053   5.742560
H   -1.993662    0.896350   4.763668
H   -3.815034    1.066878   7.470461
H   -3.377998    2.493176   6.467996
H   -3.034119    2.485592   8.216985
N   -2.257174   -2.708457   2.854798
C   -3.193371   -3.807293   2.727982
H   -2.018500   -2.150767   2.042586
H   -4.163578   -3.454999   2.352732
H   -3.328997   -4.243565   3.723534
H   -2.812094   -4.585792   2.051198
