 29
Energy: -26512.03031415.7 eV PBE+vdW (tier 2 basis)
C    0.920248    0.839044   0.418870
C    0.398180    0.639928   1.828005
O    1.137346    0.782825   2.810650
H    1.737794    0.127855   0.246093
H    1.342993    1.848123   0.339866
H    0.162254    0.704979  -0.362273
N   -0.918070    0.303078   1.925134
C   -1.666176   -0.016572   3.151884
C   -1.959436    1.195670   4.073736
O   -3.111104    1.385650   4.469689
H   -1.446871    0.274252   1.062566
H   -2.667397   -0.308071   2.810034
C   -1.043462   -1.223214   3.887265
C   -1.774331   -1.645337   5.168139
S   -1.330343   -0.743374   6.691835
C    0.364005   -1.336353   6.943151
H    0.013739   -1.017947   4.097389
H   -1.058381   -2.067242   3.178917
H   -1.606144   -2.715816   5.354307
H   -2.860011   -1.500964   5.074926
H    1.037389   -1.015447   6.138054
H    0.395422   -2.429599   7.043220
H    0.710220   -0.887577   7.881652
N   -0.901046    1.970848   4.398223
C   -1.019387    3.032213   5.377953
H    0.021995    1.661357   4.080915
H   -0.147230    3.690603   5.301049
H   -1.079351    2.625698   6.400188
H   -1.930636    3.612718   5.191854
