 29
Energy: -26512.17483215.7 eV PBE+vdW (tier 2 basis)
C    0.708639    0.611283   0.550141
C    0.093201    0.631416   1.937373
O    0.387718    1.484743   2.774831
H    1.798339    0.534153   0.650950
H    0.492850    1.565874   0.054433
H    0.347105   -0.209941  -0.080646
N   -0.813615   -0.356901   2.187773
C   -1.436429   -0.533532   3.482966
C   -1.772408   -2.029864   3.611702
O   -1.966751   -2.728007   2.612744
H   -0.997460   -1.104706   1.522055
H   -0.707088   -0.239815   4.252925
C   -2.687127    0.374699   3.616367
C   -3.501708    0.234186   4.902092
S   -2.472023    0.466863   6.400414
C   -3.713759    0.090205   7.667538
H   -3.353674    0.163567   2.766457
H   -2.334073    1.409185   3.504670
H   -3.972483   -0.758318   4.963628
H   -4.301043    0.988273   4.913350
H   -3.214581    0.183583   8.638635
H   -4.097733   -0.932607   7.560159
H   -4.545132    0.805096   7.626306
N   -1.835325   -2.488508   4.886562
C   -2.225311   -3.845688   5.214967
H   -1.724822   -1.801014   5.636562
H   -1.503706   -4.298587   5.907364
H   -2.246368   -4.425975   4.286698
H   -3.224623   -3.880591   5.674791
