 29
Energy: -26512.02544515.7 eV PBE+vdW (tier 2 basis)
C   -1.740390   -2.112991  -0.027760
C   -1.881432   -1.187469   1.164637
O   -2.992857   -0.806520   1.551697
H   -0.705138   -2.392310  -0.258033
H   -2.178716   -1.620109  -0.904644
H   -2.324198   -3.022096   0.161703
N   -0.714411   -0.821248   1.765277
C   -0.543292    0.125421   2.879145
C   -1.036707   -0.386441   4.256592
O   -0.286102   -0.303347   5.234133
H    0.134832   -1.235822   1.402950
H    0.542010    0.203733   3.022390
C   -1.072678    1.530426   2.514512
C   -0.835524    2.593777   3.593429
S   -2.183599    2.669708   4.837583
C   -1.243649    2.663522   6.388825
H   -2.140601    1.473017   2.265285
H   -0.552357    1.835642   1.592648
H   -0.756022    3.581710   3.121629
H    0.102405    2.408276   4.134115
H   -1.987795    2.694017   7.194095
H   -0.601517    3.549059   6.474126
H   -0.656316    1.740940   6.473074
N   -2.286848   -0.895036   4.293944
C   -2.925417   -1.233529   5.549264
H   -2.845698   -0.818674   3.438023
H   -3.301996   -0.332241   6.060189
H   -2.202501   -1.723697   6.211137
H   -3.763484   -1.912719   5.358034
