 29
Energy: -26512.20152415.7 eV PBE+vdW (tier 2 basis)
C   -0.919355   -1.289892  -0.098618
C   -0.451204   -0.859399   1.279603
O    0.665209   -0.386767   1.474195
H   -0.851810   -0.429687  -0.776353
H   -1.944478   -1.680738  -0.111275
H   -0.237784   -2.058952  -0.483225
N   -1.364061   -1.063944   2.288367
C   -1.159637   -0.521979   3.625351
C   -1.124699   -1.594049   4.735740
O   -1.210307   -1.275059   5.921498
H   -2.336244   -1.270342   2.042412
H   -0.146599   -0.086912   3.605335
C   -2.154659    0.598496   3.972846
C   -3.617526    0.185932   4.158041
S   -4.500944   -0.526026   2.718631
C   -4.474939    0.868647   1.558645
H   -2.062830    1.387800   3.212989
H   -1.827448    1.037742   4.925959
H   -4.204502    1.045988   4.510946
H   -3.698467   -0.592757   4.929230
H   -5.069278    0.562367   0.690184
H   -3.457794    1.108432   1.224375
H   -4.937594    1.756474   2.007884
N   -0.965485   -2.871324   4.301605
C   -0.820062   -3.995868   5.202566
H   -0.892771   -3.006093   3.298895
H    0.180808   -4.444362   5.125467
H   -1.572019   -4.769198   4.993806
H   -0.962521   -3.623530   6.222902
