 29
Energy: -26512.11085715.7 eV PBE+vdW (tier 2 basis)
C   -1.062568   -4.472257   3.411006
C   -0.890573   -3.036012   2.961942
O   -0.129315   -2.728664   2.038305
H   -1.409870   -5.065829   2.556123
H   -1.769826   -4.595121   4.240412
H   -0.085226   -4.870761   3.709937
N   -1.630717   -2.108973   3.634381
C   -1.613118   -0.683260   3.305296
C   -0.413064    0.022152   3.992456
O   -0.549987    0.760190   4.967091
H   -2.145725   -2.398617   4.458654
H   -1.468274   -0.629721   2.215735
C   -2.936357   -0.022936   3.688855
C   -4.146995   -0.540196   2.912162
S   -4.048623   -0.045688   1.156737
C   -5.485250   -0.935582   0.506040
H   -2.830080    1.061386   3.547739
H   -3.108240   -0.155145   4.768677
H   -5.069814   -0.128672   3.344937
H   -4.209535   -1.638297   2.961335
H   -5.370997   -2.020819   0.626506
H   -5.540236   -0.704222  -0.563905
H   -6.414175   -0.602456   0.986986
N    0.775436   -0.273407   3.403360
C    2.044118    0.189812   3.928671
H    0.756864   -0.985730   2.669504
H    2.614539   -0.629532   4.391728
H    1.839546    0.949436   4.690505
H    2.654064    0.633920   3.130823
