 29
Energy: -26512.06275215.7 eV PBE+vdW (tier 2 basis)
C   -0.983169    0.583868  -0.161103
C   -0.458408    0.330134   1.238152
O    0.639379    0.771853   1.601755
H   -0.276807    0.152474  -0.881743
H   -1.008644    1.665968  -0.338218
H   -1.979819    0.165593  -0.347049
N   -1.270198   -0.404693   2.046734
C   -0.975473   -0.891560   3.403943
C   -0.991932    0.198992   4.507054
O   -1.664560    0.027388   5.523512
H   -2.166403   -0.677892   1.664027
H   -1.821338   -1.534777   3.673788
C    0.309447   -1.735927   3.489497
C    0.381812   -2.919139   2.522878
S   -0.823988   -4.270222   2.768931
C   -2.222049   -3.765912   1.726760
H    0.378581   -2.100617   4.524178
H    1.185174   -1.095489   3.310127
H    1.358298   -3.409125   2.638019
H    0.320751   -2.591459   1.475019
H   -1.875480   -3.446205   0.735466
H   -2.835534   -2.979594   2.185289
H   -2.848056   -4.657590   1.603283
N   -0.203579    1.277173   4.271807
C   -0.084578    2.372840   5.212645
H    0.324117    1.290160   3.392528
H    0.940775    2.453320   5.601883
H   -0.765419    2.179744   6.048446
H   -0.354901    3.327690   4.740393
