 29
Energy: -26511.96316515.7 eV PBE+vdW (tier 2 basis)
C   -0.176285    0.781669  -0.217221
C    0.132151   -0.034604   1.021783
O    1.257550   -0.445892   1.284958
H    0.764698    0.982817  -0.735070
H   -0.671923    1.731250   0.026348
H   -0.844588    0.230232  -0.894194
N   -0.924666   -0.298263   1.872417
C   -2.333284    0.021450   1.672255
C   -2.693694    1.493804   1.977088
O   -3.729529    1.989294   1.535105
H   -0.683474   -0.936744   2.626623
H   -2.608040   -0.132200   0.617344
C   -3.187922   -0.926975   2.544569
C   -4.675798   -0.937899   2.190435
S   -5.675848   -2.016487   3.264515
C   -5.801759   -0.988262   4.753709
H   -3.051156   -0.650648   3.602216
H   -2.789206   -1.945754   2.426676
H   -4.822367   -1.337754   1.177040
H   -5.100002    0.074050   2.196126
H   -6.273977   -0.024023   4.526657
H   -4.826675   -0.824161   5.229390
H   -6.439854   -1.538432   5.455047
N   -1.814227    2.149374   2.779570
C   -1.998059    3.527457   3.188999
H   -0.963735    1.655132   3.029166
H   -2.038550    3.613512   4.283591
H   -2.947633    3.875114   2.768009
H   -1.185772    4.165755   2.814126
