 29
Energy: -26511.95546415.7 eV PBE+vdW (tier 2 basis)
C   -0.236366    1.606331   1.736492
C   -0.121443    0.110610   1.956399
O    0.937145   -0.437320   2.249222
H    0.729961    2.058259   1.973410
H   -1.016072    2.056606   2.365998
H   -0.486438    1.833101   0.690071
N   -1.279026   -0.628768   1.826976
C   -2.602101   -0.173759   1.422247
C   -3.510391    0.303835   2.583143
O   -4.596882    0.822892   2.339429
H   -1.129445   -1.630910   1.922112
H   -2.493576    0.708350   0.773577
C   -3.331109   -1.266909   0.623763
C   -2.691892   -1.533654  -0.737190
S   -3.551052   -2.919981  -1.553474
C   -2.554265   -3.050894  -3.062651
H   -4.373303   -0.946107   0.499313
H   -3.352542   -2.194080   1.220910
H   -1.627165   -1.791006  -0.633641
H   -2.765400   -0.636984  -1.371723
H   -2.980152   -3.873851  -3.648047
H   -1.507501   -3.286502  -2.831075
H   -2.607774   -2.130249  -3.657793
N   -3.015907    0.103189   3.832219
C   -3.731576    0.490121   5.031914
H   -2.095744   -0.318022   3.903328
H   -3.930351   -0.380180   5.672319
H   -4.685412    0.930206   4.721643
H   -3.165253    1.233210   5.610294
