 29
Energy: -26512.03864915.7 eV PBE+vdW (tier 2 basis)
C    1.533396    1.292296   0.818001
C    0.784685    1.315627   2.135397
O    1.123278    2.076905   3.050277
H    2.568815    0.984699   1.012325
H    1.565640    2.310670   0.412589
H    1.099230    0.619434   0.068764
N   -0.265872    0.453013   2.229863
C   -1.100741    0.190774   3.412865
C   -2.061736    1.347478   3.798561
O   -3.270743    1.127116   3.892285
H   -0.486579   -0.089494   1.404410
H   -1.787322   -0.608445   3.107304
C   -0.268394   -0.316371   4.609397
C   -1.145606   -0.692455   5.800994
S   -0.099587   -1.396837   7.119237
C   -1.365440   -1.700109   8.381987
H    0.463224    0.445997   4.906800
H    0.301438   -1.195701   4.272257
H   -1.907653   -1.431309   5.510446
H   -1.668395    0.190938   6.194449
H   -0.849693   -2.136642   9.245070
H   -2.122849   -2.410299   8.025973
H   -1.849235   -0.765632   8.694024
N   -1.467377    2.535958   4.061365
C   -2.219178    3.713328   4.446911
H   -0.455110    2.596179   3.899197
H   -1.845568    4.120613   5.396623
H   -3.268650    3.424651   4.567900
H   -2.152075    4.498733   3.679984
