36
Energy: -21201.2503732 eV PBE+vdW (tier 2 basis)
C    -0.528439  -0.153139  -0.948780
C    -0.175856  -0.204727  0.523298
O    0.971562  -0.279589  0.935637
H    0.402358  -0.104676  -1.519018
H    -1.152925  0.716125  -1.196302
H    -1.080318  -1.053611  -1.256444
N    -1.231932  -0.150666  1.427016
C    -2.654242  -0.168386  1.137037
C    -3.253271  1.187879  0.690514
O    -4.334623  1.201947  0.093404
H    -0.932611  -0.261133  2.393154
H    -2.838747  -0.831647  0.275506
C    -3.390208  -0.728529  2.377260
C    -4.924916  -0.710951  2.365832
C    -5.600014  -1.405723  1.176510
N    -5.203140  -2.809691  0.975042
C    -5.745441  -3.871266  1.570988
N    -6.621251  -3.722047  2.575808
N    -5.424306  -5.113481  1.165187
H    -3.062925  -0.151895  3.256460
H    -3.025110  -1.755634  2.537199
H    -5.294743  0.323202  2.355846
H    -5.264329  -1.147957  3.319430
H    -5.348096  -0.861926  0.256990
H    -6.694750  -1.368396  1.269898
H    -4.430377  -2.985681  0.341974
H    -7.214359  -4.487365  2.869551
H    -6.793387  -2.812074  2.982484
H    -5.644283  -5.923856  1.729529
H    -4.925537  -5.271233  0.299310
N    -2.536390  2.282421  1.018132
C    -2.941008  3.636426  0.676493
H    -1.631182  2.124838  1.451370
H    -3.028435  4.254710  1.579019
H    -3.914248  3.584083  0.178758
H    -2.214447  4.101020  -0.002803
