36
Energy: -21201.9517202 eV PBE+vdW (tier 2 basis)
C    -0.820385  0.299981  -0.664176
C    -0.222614  1.272595  0.315444
O    0.752780  1.977880  0.020495
H    -0.017526  -0.075004  -1.306714
H    -1.536148  0.830673  -1.308240
H    -1.333315  -0.542019  -0.185575
N    -0.765594  1.356053  1.573470
C    -2.151534  1.114363  1.938761
C    -3.119275  1.758308  0.918057
O    -2.860626  2.827962  0.343822
H    -0.265736  2.013699  2.164321
H    -2.348555  0.029447  1.949915
C    -2.437071  1.632457  3.378362
C    -1.797992  2.948564  3.871115
C    -2.080414  4.266075  3.120951
N    -1.303351  4.412568  1.889898
C    -0.129185  5.036739  1.753685
N    0.712772  4.647477  0.791707
N    0.214734  6.047427  2.583497
H    -2.112093  0.848772  4.076796
H    -3.529180  1.699242  3.488529
H    -0.706353  2.837745  3.980340
H    -2.162166  3.082299  4.900786
H    -1.866293  5.100671  3.798623
H    -3.141895  4.345994  2.850110
H    -1.663224  3.835874  1.101313
H    1.482834  5.246038  0.519481
H    0.712530  3.663082  0.444493
H    1.152730  6.425064  2.564512
H    -0.495717  6.599876  3.045052
N    -4.266671  1.090043  0.707117
C    -5.312754  1.587486  -0.180415
H    -4.402731  0.196021  1.164555
H    -6.131663  0.863086  -0.198068
H    -4.924605  1.719749  -1.197914
H    -5.693374  2.554505  0.171143
