36
Energy: -21201.7732142 eV PBE+vdW (tier 2 basis)
C    -0.498914  -0.946709  -0.182450
C    -0.331594  -0.997124  1.315758
O    0.538144  -1.701797  1.851564
H    0.472424  -0.728787  -0.641660
H    -1.235975  -0.211305  -0.524190
H    -0.805470  -1.941895  -0.530683
N    -1.182562  -0.218008  2.044154
C    -1.362930  -0.230277  3.500021
C    -0.187239  0.294192  4.347277
O    -0.448434  0.933625  5.391960
H    -1.837017  0.356069  1.525798
H    -2.166558  0.490441  3.698060
C    -1.824494  -1.614494  4.028496
C    -2.289997  -1.565000  5.499102
C    -1.591846  -2.538983  6.449654
N    -0.111005  -2.523207  6.461527
C    0.664743  -1.743996  7.235076
N    1.840812  -2.237604  7.674256
N    0.276779  -0.509136  7.560729
H    -1.004158  -2.331074  3.886770
H    -2.642731  -1.952636  3.379727
H    -3.361505  -1.801441  5.560628
H    -2.192113  -0.545611  5.892550
H    -1.857134  -3.572937  6.193077
H    -1.936706  -2.360904  7.477583
H    0.350181  -3.323849  6.044282
H    1.998061  -3.235115  7.747649
H    2.558356  -1.623353  8.038036
H    -0.154809  0.094672  6.816055
H    0.800300  -0.019331  8.278289
N    1.050682  -0.022059  3.949618
C    2.249009  0.421742  4.637418
H    1.116959  -0.673283  3.146167
H    3.004399  0.725744  3.903786
H    2.679847  -0.379739  5.257896
H    2.002374  1.275719  5.276776
