36
Energy: -21201.8134273 eV PBE+vdW (tier 2 basis)
C    -0.697754  -0.806087  0.927819
C    -0.639821  -1.171885  2.392239
O    0.403613  -1.441816  2.975986
H    -0.119333  0.113353  0.772303
H    -1.715052  -0.654967  0.547032
H    -0.207891  -1.596437  0.346393
N    -1.853398  -1.193727  3.054063
C    -1.918495  -1.494953  4.474985
C    -2.972553  -2.571853  4.749363
O    -3.966874  -2.374647  5.481521
H    -2.702007  -0.991107  2.539152
H    -0.931848  -1.943020  4.688722
C    -2.001010  -0.230413  5.359576
C    -3.037503  0.845201  4.992212
C    -4.426896  0.743602  5.629574
N    -4.410179  0.985272  7.079147
C    -4.623317  0.087945  8.051665
N    -4.794814  0.538704  9.314561
N    -4.656477  -1.215952  7.798483
H    -1.005658  0.227974  5.282612
H    -2.099994  -0.535953  6.411879
H    -3.175254  0.880344  3.900876
H    -2.619649  1.831313  5.247542
H    -4.883312  -0.234652  5.448528
H    -5.089476  1.501422  5.187928
H    -4.186702  1.928586  7.379174
H    -5.049024  1.499648  9.499611
H    -4.778983  -0.098504  10.099210
H    -4.344362  -1.620016  6.884156
H    -5.014796  -1.850495  8.500579
N    -2.800669  -3.776787  4.172545
C    -1.711391  -4.249545  3.325367
H    -3.553373  -4.430034  4.374988
H    -0.761497  -3.777472  3.598383
H    -1.607898  -5.330390  3.467079
H    -1.907948  -4.051013  2.262732
