36
Energy: -21201.8833292 eV PBE+vdW (tier 2 basis)
C    -1.570067  2.032222  0.804648
C    -1.782144  0.561815  1.077301
O    -0.932083  -0.291858  0.850188
H    -1.252099  2.156638  -0.237358
H    -0.748339  2.391352  1.437251
H    -2.456896  2.650644  0.988269
N    -3.017160  0.220469  1.597100
C    -3.305480  -1.150621  1.986582
C    -4.611180  -1.645171  1.343358
O    -5.603926  -2.008603  2.018897
H    -3.688559  0.953317  1.794255
H    -2.479325  -1.726619  1.534349
C    -3.218110  -1.380441  3.505241
C    -4.081485  -0.457100  4.399851
C    -4.945742  -1.218055  5.407495
N    -5.888724  -2.048993  4.662864
C    -6.753001  -2.908241  5.172087
N    -7.437664  -3.722746  4.338554
N    -6.961065  -3.003840  6.499299
H    -2.160604  -1.257743  3.771480
H    -3.452508  -2.437523  3.699723
H    -4.752831  0.171739  3.795134
H    -3.442970  0.237432  4.958832
H    -5.487180  -0.502286  6.047378
H    -4.312534  -1.847024  6.056930
H    -5.784329  -2.016066  3.611746
H    -7.314981  -3.603077  3.338788
H    -8.289971  -4.173503  4.644625
H    -7.499620  -3.764881  6.890542
H    -6.444161  -2.422345  7.144314
N    -4.668852  -1.698834  0.001546
C    -3.638719  -1.378003  -0.980587
H    -5.572582  -2.002530  -0.352602
H    -2.636603  -1.573241  -0.584669
H    -3.692111  -0.325192  -1.290075
H    -3.789619  -2.012256  -1.860375
