36
Energy: -21201.4304976 eV PBE+vdW (tier 2 basis)
C    -0.281532  -0.769085  -0.147942
C    -0.517954  0.064854  1.084344
O    0.423204  0.625660  1.672297
H    0.606617  -0.390902  -0.662593
H    -1.130667  -0.812560  -0.837962
H    -0.068885  -1.800754  0.167402
N    -1.788820  0.172248  1.587062
C    -3.076531  -0.122651  0.939381
C    -3.231097  -1.622591  0.521164
O    -3.831063  -1.929195  -0.502383
H    -1.819672  0.668558  2.472833
H    -3.828798  0.014276  1.733510
C    -3.435744  0.814117  -0.229267
C    -4.153879  2.120449  0.133871
C    -3.355675  3.185970  0.899387
N    -2.166947  3.630301  0.155393
C    -0.897332  3.346589  0.480992
N    0.027673  3.225760  -0.484773
N    -0.499873  3.196417  1.753307
H    -2.531208  1.022066  -0.821245
H    -4.090635  0.232500  -0.892478
H    -5.052215  1.900464  0.731937
H    -4.533412  2.575640  -0.795047
H    -3.019735  2.805127  1.871026
H    -3.989586  4.059338  1.102880
H    -2.331328  3.963678  -0.790876
H    1.011671  3.234140  -0.243460
H    -0.227045  3.065526  -1.450755
H    0.107644  2.376776  1.956888
H    -1.127808  3.495667  2.489402
N    -2.706492  -2.511548  1.399576
C    -2.808635  -3.952426  1.220985
H    -2.217251  -2.154017  2.212157
H    -3.322198  -4.413498  2.074156
H    -1.815071  -4.407835  1.114417
H    -3.387289  -4.138549  0.311310
