36
Energy: -21201.5574793 eV PBE+vdW (tier 2 basis)
C    -1.259477  -1.436204  1.204435
C    -0.212744  -0.924417  2.173119
O    0.574801  -1.657787  2.751662
H    -1.156207  -0.984358  0.207854
H    -2.278788  -1.231633  1.560571
H    -1.131322  -2.517730  1.115052
N    -0.151440  0.446242  2.386401
C    -1.074573  1.475245  1.926202
C    -0.229807  2.720685  1.616591
O    -0.057114  3.635052  2.447966
H    0.555637  0.704540  3.070280
H    -1.506058  1.123092  0.979824
C    -2.264389  1.732279  2.877620
C    -1.917862  2.082005  4.339297
C    -2.271866  3.534312  4.689066
N    -1.668372  3.999365  5.941398
C    -0.435318  4.516624  6.039502
N    0.362285  4.592509  4.976714
N    -0.009615  4.963126  7.240101
H    -2.872414  0.818567  2.857721
H    -2.896767  2.517079  2.432991
H    -0.849369  1.911824  4.530923
H    -2.449741  1.408363  5.024716
H    -3.357557  3.656902  4.793971
H    -1.951389  4.210925  3.887316
H    -2.142762  3.771617  6.808118
H    1.206911  5.147764  5.025129
H    0.133717  4.160327  4.059393
H    0.948979  5.252957  7.378000
H    -0.658307  5.131800  7.997130
N    0.360520  2.779967  0.407335
C    0.340647  1.778635  -0.653474
H    0.950597  3.597370  0.276600
H    -0.678294  1.597698  -1.021228
H    0.782731  0.830293  -0.320365
H    0.932563  2.158168  -1.491255
