36
Energy: -21202.0042509 eV PBE+vdW (tier 2 basis)
C    -2.369830  -1.025377  1.883906
C    -1.579148  -0.483101  3.051995
O    -0.816426  0.476360  2.956023
H    -3.065060  -1.829737  2.150755
H    -1.669107  -1.398656  1.126080
H    -2.929892  -0.202075  1.424312
N    -1.776508  -1.117679  4.259086
C    -1.031800  -0.765265  5.465973
C    -1.059387  0.759773  5.719511
O    -0.081577  1.380778  6.168522
H    -2.355874  -1.949202  4.282271
H    -1.619636  -1.177443  6.302429
C    0.364855  -1.423569  5.578186
C    1.281009  -1.397177  4.347744
C    2.056623  -0.103251  4.073108
N    3.270688  0.016456  4.895799
C    3.517617  0.894521  5.876886
N    4.791324  1.013824  6.320419
N    2.552079  1.621527  6.424598
H    0.182912  -2.478491  5.828922
H    0.868069  -0.995544  6.457807
H    0.699777  -1.634898  3.447592
H    2.006738  -2.220022  4.444567
H    1.432938  0.784070  4.216684
H    2.382080  -0.086875  3.024209
H    4.017953  -0.638468  4.690059
H    4.996796  1.527110  7.166681
H    5.573781  0.736738  5.743138
H    2.796250  2.408837  7.011555
H    1.533467  1.427086  6.275119
N    -2.254955  1.350212  5.562182
C    -2.454713  2.780044  5.745567
H    -2.990977  0.810242  5.121519
H    -3.528221  2.982213  5.807100
H    -2.026309  3.351601  4.910116
H    -1.974604  3.104687  6.674712
