36
Energy: -21201.759091 eV PBE+vdW (tier 2 basis)
C    0.431493  -0.787137  0.816069
C    -0.498134  -1.381645  1.842550
O    -0.314678  -2.511855  2.317130
H    0.123329  0.204331  0.464527
H    0.491353  -1.467633  -0.042248
H    1.438920  -0.718733  1.245523
N    -1.563457  -0.605250  2.218854
C    -2.468060  -1.107208  3.241682
C    -3.972205  -0.865621  3.074943
O    -4.743304  -1.795994  3.373078
H    -1.602330  0.351121  1.890451
H    -2.386598  -2.186368  3.115806
C    -2.010087  -0.773959  4.688975
C    -2.573658  -1.740796  5.737378
C    -1.915870  -3.131405  5.770075
N    -1.744904  -3.847086  4.494664
C    -2.666673  -4.606935  3.891973
N    -2.256729  -5.548631  3.023153
N    -3.973770  -4.448158  4.166696
H    -2.292234  0.257567  4.945321
H    -0.910240  -0.806146  4.697736
H    -3.661791  -1.834864  5.618303
H    -2.421616  -1.313160  6.738963
H    -2.482234  -3.787887  6.443179
H    -0.900908  -3.044959  6.180169
H    -0.925667  -3.610024  3.923008
H    -1.274637  -5.787953  2.956860
H    -2.873509  -5.886876  2.295166
H    -4.332363  -3.476062  4.143078
H    -4.618201  -5.153429  3.825158
N    -4.463472  0.333031  2.692025
C    -3.757921  1.572271  2.397790
H    -5.478850  0.348199  2.635071
H    -4.445412  2.409781  2.554387
H    -3.409067  1.617868  1.354853
H    -2.912361  1.723204  3.080328
