36
Energy: -21201.6456838 eV PBE+vdW (tier 2 basis)
C    -0.624666  0.166632  -0.155204
C    -0.536431  -0.079009  1.328474
O    0.522790  -0.473153  1.852517
H    -1.611817  0.505614  -0.488582
H    0.127305  0.913969  -0.437401
H    -0.367467  -0.761644  -0.681096
N    -1.671317  0.134961  2.044252
C    -1.796288  -0.089049  3.483991
C    -3.091773  -0.899074  3.748839
O    -4.082981  -0.362421  4.234273
H    -2.491765  0.472017  1.549674
H    -0.930018  -0.704452  3.751988
C    -1.810631  1.236736  4.262720
C    -1.720689  1.135996  5.798588
C    -0.323559  1.113971  6.433973
N    0.421522  -0.150489  6.292718
C    1.081588  -0.548879  5.197867
N    1.340366  -1.856634  5.011786
N    1.494115  0.308527  4.256684
H    -2.755672  1.739179  4.017235
H    -1.005255  1.875991  3.870496
H    -2.308167  0.279885  6.161476
H    -2.219447  2.020817  6.220000
H    -0.411467  1.282079  7.514238
H    0.295569  1.943477  6.061658
H    0.314682  -0.825870  7.042096
H    2.033556  -2.136656  4.328551
H    0.936708  -2.570319  5.603722
H    1.322954  0.021413  3.264872
H    1.376486  1.296610  4.445696
N    -3.067827  -2.222880  3.421432
C    -2.044339  -2.964558  2.700312
H    -3.968093  -2.677568  3.553195
H    -2.148866  -4.029540  2.934736
H    -1.037916  -2.651502  3.003384
H    -2.125008  -2.840987  1.609662
