36
Energy: -21200.8765995 eV PBE+vdW (tier 2 basis)
C    0.080012  -1.145931  -0.033938
C    0.100170  -0.791250  1.429365
O    1.053883  -0.260899  1.984846
H    1.098885  -1.332068  -0.385862
H    -0.315739  -0.274556  -0.577548
H    -0.562147  -2.005463  -0.264675
N    -1.061091  -1.110532  2.147910
C    -1.380329  -0.274193  3.331815
C    -1.151505  1.219556  2.925355
O    -1.623767  1.539728  1.835398
H    -1.865865  -1.224869  1.534835
H    -2.480645  -0.286336  3.376945
C    -0.967348  -0.888543  4.686472
C    0.467741  -1.336096  5.007272
C    1.050542  -2.473590  4.147457
N    0.065183  -3.470731  3.711874
C    -0.252866  -4.600454  4.333032
N    0.246374  -4.899607  5.544464
N    -1.088902  -5.478510  3.744726
H    -1.630394  -1.757442  4.834317
H    -1.281636  -0.182180  5.467254
H    0.465511  -1.637303  6.067140
H    1.174573  -0.502595  4.927117
H    1.868457  -2.987630  4.670228
H    1.482140  -2.054171  3.233681
H    -0.539404  -3.137418  2.954472
H    0.254205  -5.853239  5.882748
H    0.785512  -4.217582  6.060988
H    -1.337645  -5.384303  2.769101
H    -1.532851  -6.217078  4.274205
N    -0.624619  2.162064  3.754289
C    0.338502  2.054749  4.841446
H    -0.669473  3.073173  3.303359
H    1.266328  1.561033  4.519634
H    -0.072828  1.537436  5.716160
H    0.591913  3.070490  5.160759
