36
Energy: -21201.8013537 eV PBE+vdW (tier 2 basis)
C    -0.687155  1.332649  0.703874
C    -0.735028  0.850295  2.130838
O    0.304127  0.772167  2.807403
H    -1.668717  1.538087  0.264372
H    -0.160924  0.594599  0.084000
H    -0.084404  2.248480  0.682143
N    -1.943437  0.535348  2.684255
C    -3.120197  0.004149  2.002991
C    -4.194652  -0.233140  3.076693
O    -3.879079  -0.642918  4.208221
H    -1.902490  0.275293  3.667973
H    -3.482340  0.738605  1.271225
C    -2.835044  -1.321793  1.244565
C    -2.410819  -2.562066  2.052889
C    -1.131550  -2.479120  2.901848
N    -1.423491  -2.003563  4.265063
C    -0.525871  -1.603646  5.174275
N    -0.864584  -1.663073  6.476706
N    0.682183  -1.161275  4.798364
H    -2.065033  -1.104019  0.490056
H    -3.738210  -1.586283  0.673941
H    -2.249585  -3.363708  1.319135
H    -3.239335  -2.917485  2.685233
H    -0.380820  -1.842856  2.416231
H    -0.692726  -3.483670  2.988905
H    -2.414167  -1.825786  4.479965
H    -0.397620  -1.086027  7.164756
H    -1.674268  -2.193597  6.773001
H    1.385613  -1.005095  5.511428
H    0.705460  -0.527140  3.972543
N    -5.482097  -0.042564  2.732064
C    -6.018130  0.489753  1.482653
H    -6.140590  -0.265854  3.473918
H    -7.108056  0.523219  1.568953
H    -5.771393  -0.148685  0.624223
H    -5.665402  1.511695  1.290201
