36
Energy: -21201.691024 eV PBE+vdW (tier 2 basis)
C    0.164177  -0.245683  0.483502
C    0.186641  0.288529  1.891743
O    1.232304  0.281763  2.571553
H    -0.227070  -1.273970  0.468904
H    -0.457965  0.357738  -0.188131
H    1.192237  -0.275314  0.112294
N    -0.968196  0.785952  2.420128
C    -2.345342  0.491932  2.023119
C    -3.154048  1.721574  1.527229
O    -4.363399  1.613020  1.360232
H    -0.857964  1.157143  3.362172
H    -2.306359  -0.188754  1.160702
C    -3.105326  -0.209202  3.161816
C    -2.642387  -1.644324  3.497462
C    -1.857588  -1.830216  4.801740
N    -0.503800  -1.274240  4.718035
C    0.192540  -0.665100  5.686541
N    1.254369  0.069068  5.341644
N    -0.200140  -0.757957  6.970235
H    -3.067540  0.429900  4.060464
H    -4.157341  -0.217846  2.852627
H    -2.060704  -2.073411  2.664368
H    -3.525868  -2.290837  3.585932
H    -1.801273  -2.902706  5.044998
H    -2.386616  -1.327300  5.624429
H    -0.034186  -1.314418  3.817260
H    1.409602  0.265511  4.331169
H    1.957272  0.323354  6.023801
H    -0.817795  -1.498896  7.274123
H    0.241924  -0.196420  7.686174
N    -2.433836  2.844051  1.280322
C    -3.033875  4.059356  0.750744
H    -1.432406  2.812300  1.432118
H    -2.824144  4.913373  1.406970
H    -4.115671  3.902614  0.697000
H    -2.654651  4.279536  -0.255892
