36
Energy: -21201.4078237 eV PBE+vdW (tier 2 basis)
C    -1.405806  0.058430  -0.034717
C    -1.045314  0.233824  1.419859
O    0.093929  0.596926  1.764108
H    -0.782479  -0.742397  -0.453656
H    -1.163214  0.978314  -0.580136
H    -2.459731  -0.191060  -0.201127
N    -2.023265  -0.029519  2.320062
C    -1.801226  -0.113804  3.769782
C    -3.050570  -0.672769  4.478552
O    -2.935786  -1.644105  5.215458
H    -2.885033  -0.432913  1.966087
H    -1.044032  -0.890013  3.948810
C    -1.301349  1.210616  4.416399
C    0.133222  1.064856  4.926423
C    0.798925  2.354806  5.398583
N    0.787013  3.498500  4.454238
C    1.497777  3.618874  3.319115
N    1.916051  4.847971  2.951621
N    1.788075  2.560666  2.563474
H    -1.963131  1.491837  5.249221
H    -1.373791  2.020642  3.677492
H    0.744687  0.583975  4.152285
H    0.150736  0.376962  5.785669
H    1.842056  2.147752  5.678935
H    0.292458  2.735637  6.294512
H    0.424951  4.368723  4.827124
H    2.204083  5.037653  2.000022
H    2.019862  5.592594  3.629080
H    2.457373  2.674621  1.810753
H    1.134028  1.758323  2.458547
N    -4.266246  -0.083781  4.239239
C    -4.554241  1.255815  3.741333
H    -5.007638  -0.533887  4.772218
H    -5.535910  1.256999  3.253204
H    -3.812335  1.564731  2.998201
H    -4.568392  2.003915  4.549424
