36
Energy: -21201.9147731 eV PBE+vdW (tier 2 basis)
C    1.847489  1.126287  1.168355
C    1.095868  0.994723  2.463796
O    1.595140  1.356736  3.552299
H    2.792875  0.574787  1.248602
H    2.098853  2.181970  1.005529
H    1.289709  0.753791  0.302340
N    -0.143470  0.460348  2.414505
C    -0.954091  0.270825  3.618666
C    -1.915833  -0.917670  3.347873
O    -3.055964  -0.720549  2.941021
H    -0.551394  0.233219  1.512917
H    -0.247250  -0.006289  4.413720
C    -1.742256  1.530482  4.031224
C    -1.906981  1.659252  5.559066
C    -0.945158  2.650123  6.223702
N    0.448220  2.381050  5.859589
C    1.509975  3.021961  6.346542
N    2.692111  2.868198  5.729286
N    1.411054  3.812174  7.430540
H    -2.724341  1.468107  3.545202
H    -1.243389  2.420048  3.620281
H    -1.803733  0.671980  6.035247
H    -2.922011  1.999361  5.800504
H    -1.064285  2.574870  7.316180
H    -1.209551  3.679363  5.926092
H    0.648006  1.864817  4.982219
H    3.550721  3.217865  6.130416
H    2.723460  2.338361  4.856152
H    2.208489  4.321566  7.785421
H    0.542340  3.887449  7.940857
N    -1.408929  -2.163904  3.544308
C    -0.085127  -2.533919  4.026840
H    -2.067291  -2.908837  3.334594
H    0.019053  -3.619865  3.941099
H    0.064032  -2.267536  5.083657
H    0.712629  -2.076839  3.426073
