36
Energy: -21201.7083293 eV PBE+vdW (tier 2 basis)
C    0.384439  -0.852881  -0.031119
C    0.344703  0.091574  1.151571
O    1.350452  0.628971  1.598908
H    1.244635  -0.581007  -0.649797
H    -0.525765  -0.836624  -0.643707
H    0.542356  -1.883321  0.317860
N    -0.879104  0.346319  1.742042
C    -2.175004  -0.267946  1.509468
C    -3.209951  0.612325  2.221927
O    -2.978874  1.088300  3.350270
H    -0.841004  1.046393  2.479332
H    -2.393444  -0.268558  0.429004
C    -2.302577  -1.743000  1.995797
C    -2.321945  -1.979868  3.512580
C    -0.995874  -1.656578  4.220775
N    -1.115558  -1.607762  5.679867
C    -1.381250  -0.498591  6.384341
N    -1.249023  -0.538540  7.727517
N    -1.763409  0.627292  5.784657
H    -1.487268  -2.316839  1.531952
H    -3.232831  -2.151034  1.573432
H    -2.574336  -3.035038  3.695348
H    -3.130963  -1.393130  3.971038
H    -0.584300  -0.696316  3.894300
H    -0.234072  -2.410422  3.982645
H    -1.056993  -2.478342  6.196550
H    -1.595962  0.215279  8.305399
H    -0.670604  -1.237844  8.174359
H    -1.769623  1.491326  6.312382
H    -2.138148  0.674780  4.816241
N    -4.373032  0.796664  1.575945
C    -5.492136  1.560621  2.111003
H    -4.452188  0.429195  0.633818
H    -5.635513  2.488035  1.541794
H    -5.270094  1.812763  3.151318
H    -6.412457  0.966079  2.065994
