36
Energy: -21201.8946744 eV PBE+vdW (tier 2 basis)
C    0.349971  1.351746  2.092358
C    -0.084106  0.134475  2.871168
O    0.505924  -0.251712  3.882431
H    1.398884  1.229389  1.796653
H    0.299876  2.226030  2.753603
H    -0.255457  1.544993  1.198776
N    -1.185579  -0.534925  2.393062
C    -1.775427  -1.632867  3.164017
C    -1.004549  -2.944110  2.865109
O    -1.345210  -3.778112  2.000066
H    -1.679737  -0.151953  1.596604
H    -1.554346  -1.384193  4.212647
C    -3.311429  -1.692626  3.047486
C    -3.980324  -2.438333  1.881666
C    -3.552653  -1.992530  0.478624
N    -4.076133  -2.858312  -0.581707
C    -3.489701  -3.999184  -0.981428
N    -4.026223  -4.667885  -2.024812
N    -2.400332  -4.457518  -0.375246
H    -3.666955  -0.650650  3.084687
H    -3.684560  -2.157479  3.970493
H    -5.068176  -2.302277  1.979682
H    -3.789689  -3.513176  1.985753
H    -2.459166  -1.989084  0.377287
H    -3.903309  -0.974406  0.258863
H    -5.021867  -2.689112  -0.905651
H    -3.700194  -5.592481  -2.271519
H    -4.669988  -4.217327  -2.661313
H    -1.884721  -5.221837  -0.793328
H    -2.059087  -4.107236  0.551291
N    0.094484  -3.095047  3.615835
C    1.023552  -4.200783  3.444588
H    0.389874  -2.267179  4.143066
H    1.667978  -4.258991  4.326702
H    1.651175  -4.066593  2.551520
H    0.468030  -5.138813  3.340373
