36
Energy: -21202.1943641 eV PBE+vdW (tier 2 basis)
C    0.644531  0.529585  0.288500
C    0.254615  0.291005  1.721005
O    1.129568  0.144257  2.608824
H    1.295497  1.410815  0.233638
H    -0.214502  0.671442  -0.375447
H    1.230653  -0.329499  -0.063075
N    -1.060996  0.248494  1.997010
C    -1.645272  -0.195099  3.255110
C    -2.835840  -1.100208  2.841384
O    -3.383166  -0.919313  1.754387
H    -1.742705  0.232042  1.232583
H    -0.889107  -0.779329  3.800093
C    -2.191663  0.968682  4.119588
C    -1.211491  2.060734  4.573446
C    -0.207499  1.686436  5.672241
N    0.906012  0.913980  5.128253
C    2.101510  0.765400  5.680160
N    3.105969  0.284582  4.919875
N    2.339724  1.088186  6.966189
H    -2.685114  0.533217  5.002767
H    -2.989416  1.452020  3.536504
H    -1.815493  2.888684  4.969916
H    -0.667950  2.478802  3.712223
H    -0.718553  1.117224  6.468311
H    0.182335  2.612299  6.125033
H    0.849126  0.584130  4.127171
H    3.927609  -0.126653  5.342126
H    2.908070  0.067606  3.945183
H    3.285227  1.164017  7.316735
H    1.595330  1.426345  7.560048
N    -3.221454  -2.021595  3.752415
C    -4.360570  -2.908066  3.553019
H    -2.673418  -2.124436  4.598669
H    -4.830347  -2.642101  2.601653
H    -5.091282  -2.788005  4.362762
H    -4.037045  -3.956010  3.511666
