16
Energy: -101117.2723988  eV PBE+vdW (tier 2 basis)
 N   -0.29213    0.10207   -0.10867
 C   -0.31850   -0.01816    1.28608
 C    1.09447   -0.36350    1.91672
 O    1.26486   -0.43269    3.13020
 H   -0.14352    1.00178   -0.56374
 H   -0.39287   -0.70738   -0.72041
 H   -0.57013    0.95738    1.74090
 C   -1.35254   -1.09146    1.76704
 C   -1.40485   -1.01509    3.27334
 O   -1.47878    0.13842    3.83232
 O   -1.22635   -2.03881    3.99409
 H   -1.08234   -2.10058    1.43374
 H   -2.33452   -0.82493    1.34957
 O    2.01536   -0.55502    1.00515
 H    2.89040   -0.76221    1.40565
Sr    0.09243   -0.61382    5.46302
