16
Energy: -101117.0146682  eV PBE+vdW (tier 2 basis)
 N   -0.24536   -0.64752   -0.02595
 C    0.17541   -0.10620    1.23691
 C    1.69251   -0.37835    1.46718
 O    2.15793   -1.51751    1.37825
 H    0.35675   -0.58637   -0.84774
 H   -1.24460   -0.67668   -0.23195
 H   -0.01191    0.98741    1.26915
 C   -0.65331   -0.79316    2.35393
 C   -0.35392   -2.27040    2.21703
 O    0.11081   -2.97348    3.15810
 O   -0.40763   -2.79114    1.03838
 H   -1.72260   -0.59569    2.18396
 H   -0.39684   -0.43415    3.35701
 O    2.48050    0.60635    1.81616
 H    2.05248    1.48650    1.84309
Sr    1.75978   -3.92361    1.68547
