16
Energy: -101116.9468280  eV PBE+vdW (tier 2 basis)
 N   -0.33822    0.79629    0.40107
 C    0.22334   -0.17592    1.41522
 C    1.78030   -0.47114    1.01747
 O    2.13559    0.20449    0.05432
 H    0.38778    1.49382    0.15750
 H   -1.17650    1.28412    0.75378
 H    0.29457    0.36208    2.37152
 C   -0.64622   -1.42554    1.52498
 C    0.01431   -2.44653    2.42965
 O    0.43903   -3.54175    1.94630
 O    0.27832   -2.18219    3.64457
 H   -0.83308   -1.89124    0.54528
 H   -1.62161   -1.15612    1.97038
 O    2.36123   -1.29409    1.76524
 H   -0.58948    0.32787   -0.48370
Sr    2.52064   -3.17615    3.23642
