16
Energy: -101116.9282840  eV PBE+vdW (tier 2 basis)
 N   -0.93637    1.14134    0.52125
 C   -0.01286    0.12605    1.17092
 C    1.23588   -0.03070    0.26380
 O    2.20185   -0.73916    0.70608
 H   -0.52730    2.08879    0.55340
 H   -1.85855    1.18289    0.98159
 H    0.30852    0.55372    2.13048
 C   -0.75230   -1.21267    1.39786
 C    0.24493   -2.29638    1.74379
 O    0.52187   -3.21878    0.91760
 O    0.92889   -2.27771    2.81950
 H   -1.29987   -1.53140    0.49770
 H   -1.46977   -1.11177    2.22816
 O    1.22839    0.50514   -0.85173
 H   -1.07174    0.92091   -0.48053
Sr    2.95742   -2.82927    1.49416
