16
Energy: -101117.3173088  eV PBE+vdW (tier 2 basis)
 N    0.92154   -0.41475   -0.10868
 C    0.08011   -0.25854    0.98747
 C    0.81425    0.64087    2.15583
 O    0.49488    0.50583    3.30172
 H    1.54722   -1.21646   -0.18111
 H    1.11126    0.36150   -0.74124
 H   -0.74835    0.43223    0.72828
 C   -0.45372   -1.56009    1.58050
 C   -1.79468   -1.97476    0.99832
 O   -2.50199   -1.14386    0.32686
 O   -2.22230   -3.15067    1.24112
 H   -0.60776   -1.43296    2.66410
 H    0.25658   -2.39247    1.47944
 O    1.67845    1.47421    1.61013
 H    2.07690    2.05634    2.29684
Sr   -4.28837   -2.72642    0.21042
