16
Energy: -101116.9466528  eV PBE+vdW (tier 2 basis)
 N    0.02966    1.20688    0.79237
 C    0.36804   -0.08170    1.50948
 C    1.56337   -0.82079    0.67580
 O    1.92336   -1.92453    1.15116
 H   -0.55526    1.04110   -0.04172
 H    0.90102    1.64644    0.44581
 H    0.84377    0.19517    2.46132
 C   -0.87577   -0.94094    1.71918
 C   -0.49140   -2.28729    2.29976
 O    0.10381   -2.37987    3.41901
 O   -0.63912   -3.34181    1.60734
 H   -1.43129   -1.10620    0.78337
 H   -1.55124   -0.44031    2.43726
 O    1.93786   -0.13851   -0.27527
 H   -0.46789    1.87220    1.40456
Sr    1.64008   -3.99583    2.31956
