16
Energy: -101117.4795992  eV PBE+vdW (tier 2 basis)
 N    0.67084    0.43657    0.74832
 C    0.10126    0.06319    1.93210
 C    1.31626   -0.52824    3.09939
 O    2.40898   -0.83972    2.61154
 H    1.11270    1.35037    0.65270
 H   -1.97832   -2.91248    0.55589
 H   -0.24433    0.93635    2.50282
 C   -0.96681   -1.04700    1.87303
 C   -0.53069   -2.50794    1.77051
 O    0.41929   -2.98136    2.41051
 O   -1.23215   -3.33217    1.02906
 H   -1.66406   -0.79252    1.06193
 H   -1.54319   -0.98799    2.81157
 O    0.80983   -0.70697    4.21309
 H    0.86686   -0.22568   -0.00031
Sr    2.15553   -2.87841    4.02687
