16
Energy: -101117.2094731  eV PBE+vdW (tier 2 basis)
 N    0.04283    0.76088    0.29589
 C   -0.24978    0.14503    1.53059
 C    1.01400   -0.72789    2.00204
 O    1.23041   -1.87385    1.62569
 H   -0.37836    0.41492   -0.56739
 H    0.70197    1.53740    0.23233
 H   -0.30789    0.92125    2.31730
 C   -1.52997   -0.70280    1.47899
 C   -1.31406   -1.93656    0.63742
 O   -1.58799   -3.09347    1.07232
 O   -0.68654   -1.81891   -0.48059
 H   -2.34338   -0.09141    1.05875
 H   -1.82774   -1.00289    2.49243
 O    1.76321   -0.02528    2.81253
 H    2.55792   -0.52216    3.11401
Sr    0.45325   -3.88416    0.13537
