23
Energy: -566890.342969 eV PBE+vdW (tier 2 basis)
C    0.524329  1.284439  0.705144
C    -0.212606  0.415949  1.668498
O    0.259907  0.060585  2.818636
H    0.670186  2.279982  1.154700
H    -0.016094  1.415642  -0.238049
H    1.509142  0.845698  0.490838
N    -1.402663  -0.064997  1.348242
C    -2.234389  -0.948472  2.179635
C    -3.166748  -1.639873  1.165138
O    -3.265357  -1.153494  0.033226
H    -1.773103  0.073069  0.396161
H    -1.584340  -1.673932  2.687692
C    -3.088692  -0.151981  3.189590
H    -3.719881  -0.826067  3.779831
H    -3.734650  0.567749  2.672726
H    -2.433845  0.387703  3.882476
N    -3.911472  -2.724069  1.508497
C    -3.791087  -3.593436  2.654788
H    -4.537358  -3.031138  0.756516
H    -4.793940  -3.745914  3.090830
H    -3.118419  -3.184399  3.411256
H    -3.435467  -4.590555  2.340265
Hg    2.028549  1.048510  3.758362
