23
Energy: -566890.40629 eV PBE+vdW (tier 2 basis)
C    0.562325  -0.031855  1.731261
C    -0.615281  -0.930168  1.640918
O    -0.600960  -2.122753  1.223759
H    0.486456  0.659326  2.580879
H    0.640072  0.562502  0.804679
H    1.483821  -0.618493  1.804717
N    -1.877524  -0.481207  1.932616
C    -2.326331  0.879464  1.953320
C    -2.372511  1.296732  3.562138
O    -1.304646  1.638573  4.031372
H    -2.595474  -1.213215  1.909535
H    -1.544861  1.546752  1.576400
C    -3.647804  1.093692  1.232173
H    -3.991116  2.127058  1.357939
H    -4.438259  0.401486  1.557102
H    -3.489664  0.928130  0.156362
N    -3.555848  1.211761  4.171660
C    -3.775331  1.751622  5.519152
H    -4.375387  0.997745  3.608084
H    -4.629522  1.221750  5.956320
H    -4.005136  2.826238  5.482609
H    -2.870000  1.598498  6.116699
Hg    1.029975  -3.772635  1.567305
