23
Energy: -566890.891153 eV PBE+vdW (tier 2 basis)
C    -0.601739  -0.871900  0.129316
C    -0.155340  -0.515251  1.510455
O    1.101651  -0.678407  1.727679
H    -0.440454  -1.952438  -0.014278
H    0.025107  -0.354226  -0.607898
H    -1.660753  -0.650135  -0.045035
N    -1.069165  -0.060345  2.387786
C    -1.164034  -0.077850  3.886351
C    -0.634394  1.194589  4.589970
O    0.626232  1.460289  4.747855
H    -1.979180  0.074218  1.951462
H    -2.247192  -0.074681  4.051709
C    -0.636223  -1.359187  4.544003
H    -0.895127  -1.355192  5.610516
H    0.451797  -1.509005  4.477897
H    -1.111000  -2.231239  4.078147
N    -1.475683  2.030475  5.160341
C    -2.943831  1.966635  5.263402
H    -1.024777  2.805060  5.655808
H    -3.400644  1.762309  4.289255
H    -3.289760  2.948417  5.599980
H    -3.251192  1.215807  6.002349
Hg    1.876701  0.345054  3.431929
