20
Energy: -602567.926814 eV PBE+vdW (tier 2 basis)
C    0.216329  2.767909  0.900962
C    -0.566903  2.184425  2.023312
O    -0.037744  2.106873  3.186278
H    -0.319327  2.757940  -0.053940
H    1.168014  2.229501  0.796628
H    0.468933  3.807475  1.160050
N    -1.822117  1.778652  1.803238
C    -2.780200  1.357489  2.826494
C    -2.583464  -0.090504  3.271217
O    -1.627199  -0.374146  4.086759
H    -2.176012  1.887806  0.855149
H    -2.670942  1.995476  3.715381
H    -3.786369  1.532302  2.434971
N    -3.370638  -1.063789  2.866602
C    -4.527946  -1.050668  1.966516
H    -3.134114  -1.978278  3.262689
H    -5.427155  -1.327062  2.531190
H    -4.364732  -1.789452  1.172687
H    -4.672637  -0.067785  1.513172
Pb    0.104224  0.755837  4.955646
