20
Energy: -602567.279317 eV PBE+vdW (tier 2 basis)
C    0.571029  1.548280  1.018646
C    -0.619943  1.461577  1.897564
O    -0.494415  1.605933  3.167442
H    1.291687  0.751057  1.252095
H    0.331358  1.549734  -0.048211
H    1.082149  2.493247  1.266531
N    -1.859619  1.256302  1.402310
C    -2.168552  0.214730  0.439107
C    -2.185240  -1.141686  1.171491
O    -1.887450  -1.208402  2.424368
H    -2.614265  1.475947  2.054148
H    -3.141232  0.419672  -0.027103
H    -1.420833  0.193970  -0.365290
N    -2.498958  -2.241401  0.524540
C    -2.869991  -2.405599  -0.885652
H    -2.472937  -3.096042  1.085939
H    -2.112853  -3.018832  -1.390219
H    -2.949041  -1.440768  -1.391776
H    -3.837977  -2.918096  -0.940016
Pb    -1.232454  -0.182494  4.350202
