20
Energy: -602566.643675 eV PBE+vdW (tier 2 basis)
C    -1.760146  0.417441  -0.122858
C    -1.015811  0.815456  1.111341
O    -0.094278  1.797102  0.915181
H    -2.491400  -0.374173  0.064790
H    -1.054766  0.064833  -0.888052
H    -2.288128  1.287191  -0.537956
N    -1.127653  0.366016  2.302623
C    -2.066998  -0.678620  2.658141
C    -1.879938  -0.904456  4.154015
O    -0.986282  -0.167179  4.736049
H    -0.630103  0.402624  3.971861
H    -3.116195  -0.395469  2.469341
H    -1.874853  -1.626730  2.128188
N    -2.568941  -1.783246  4.828451
C    -2.447105  -2.057587  6.267619
H    -3.255234  -2.330266  4.310185
H    -3.414972  -1.875360  6.748654
H    -1.687395  -1.404400  6.701567
H    -2.161963  -3.106560  6.408375
Pb    1.247163  3.274382  0.436484
