20
Energy: -602566.471271 eV PBE+vdW (tier 2 basis)
C    0.140981  0.326687  0.081390
C    -0.080623  0.625258  1.519002
O    0.973166  0.990651  2.244577
H    0.876044  -0.485075  -0.017554
H    0.562296  1.211190  -0.417883
H    -0.780508  0.035538  -0.430274
N    -1.221705  0.559399  2.128674
C    -2.545616  0.198965  1.638465
C    -3.402288  0.345769  2.927231
O    -2.794137  0.702601  3.955337
H    -1.391614  0.776029  3.173887
H    -2.883449  0.884954  0.848879
H    -2.566494  -0.830760  1.254603
N    -4.707751  0.093153  2.883744
C    -5.521925  -0.328351  1.747430
H    -5.185062  0.216689  3.777096
H    -6.310399  0.410815  1.558495
H    -5.989159  -1.297656  1.961754
H    -4.914634  -0.427414  0.843225
Pb    2.633876  1.554559  3.377922
