20
Energy: -602566.367234 eV PBE+vdW (tier 2 basis)
C    0.259911  -0.359211  0.122114
C    -0.017119  0.179482  1.482886
O    0.989352  0.373372  2.326261
H    -0.656673  -0.470056  -0.465996
H    0.744140  -1.343533  0.201501
H    0.939332  0.317870  -0.416109
N    -1.225862  0.462011  1.855596
C    -1.749128  0.989910  3.105423
C    -3.273058  1.056137  2.798179
O    -3.620864  0.674915  1.667217
H    -2.098494  0.334449  1.235711
H    -1.532934  0.316595  3.947082
H    -1.334829  1.984092  3.325470
N    -4.122177  1.502828  3.723719
C    -3.841949  1.974033  5.074410
H    -5.097395  1.505209  3.421987
H    -4.368737  1.348650  5.806581
H    -4.183568  3.010866  5.187488
H    -2.770196  1.935007  5.289334
Pb    3.046654  0.304510  2.809088
