20
Energy: -602566.590906 eV PBE+vdW (tier 2 basis)
C    0.099497  0.279666  0.216791
C    -0.068251  0.433725  1.694510
O    1.102256  0.555329  2.377454
H    0.706038  -0.610567  -0.000007
H    0.634002  1.148595  -0.191501
H    -0.856249  0.183518  -0.306537
N    -1.141075  0.465990  2.388478
C    -2.458725  0.348168  1.794517
C    -3.437291  0.439639  2.956274
O    -2.910115  0.591018  4.134040
H    -1.912393  0.607880  3.939118
H    -2.679218  1.155215  1.075722
H    -2.609753  -0.612234  1.273498
N    -4.736170  0.377067  2.844948
C    -5.525487  0.209228  1.621921
H    -5.256721  0.454041  3.721967
H    -4.876488  0.145286  0.745195
H    -6.200338  1.065707  1.508275
H    -6.118918  -0.709483  1.698591
Pb    2.932400  0.727214  3.289746
