20
Energy: -602568.017831 eV PBE+vdW (tier 2 basis)
C    -0.742068  2.022488  1.793689
C    -0.662676  0.841050  0.893366
O    -0.019216  0.933703  -0.210867
H    -1.237951  2.839434  1.247359
H    0.270928  2.373609  2.032589
H    -1.292328  1.826531  2.719779
N    -1.289051  -0.288166  1.236926
C    -1.471177  -1.467137  0.387466
C    -0.251238  -2.388238  0.353832
O    0.803660  -2.041498  -0.290336
H    -1.788189  -0.279247  2.124145
H    -2.359262  -1.999300  0.747443
H    -1.688128  -1.145702  -0.642352
N    -0.314514  -3.545821  0.976300
C    0.744595  -4.558273  1.032518
H    -1.184439  -3.773726  1.456280
H    1.593882  -4.234448  0.428291
H    0.349415  -5.506646  0.649103
H    1.056610  -4.696039  2.075255
Pb    1.398147  -0.225571  -1.475786
