20
Energy: -602566.513284 eV PBE+vdW (tier 2 basis)
C    0.456013  -0.097468  0.034646
C    -0.043407  0.123549  1.427064
O    0.816381  -0.210927  2.438216
H    -0.291875  0.193959  -0.707614
H    0.694981  -1.161577  -0.118541
H    1.364847  0.499058  -0.141606
N    -1.205246  0.597333  1.656717
C    -1.751382  0.837101  2.973170
C    -3.148963  1.395595  2.729889
O    -3.509941  1.521544  1.489753
H    -2.707572  1.191179  0.965862
H    -1.824539  -0.081793  3.578636
H    -1.161356  1.566691  3.552763
N    -3.987813  1.747577  3.666643
C    -3.793011  1.690865  5.116506
H    -4.888044  2.103865  3.336233
H    -3.903401  2.698118  5.535151
H    -2.798847  1.308319  5.359969
H    -4.550781  1.032856  5.558103
Pb    2.738958  -0.989843  2.699436
