20
Energy: -602567.304195 eV PBE+vdW (tier 2 basis)
C    -1.912282  1.279920  -0.044517
C    -0.600383  0.939309  0.555908
O    0.476954  1.457614  0.085021
H    -1.970885  2.380431  -0.078723
H    -2.766915  0.901039  0.522689
H    -1.964938  0.947594  -1.091601
N    -0.493335  0.107489  1.614567
C    -1.152019  -1.183537  1.677533
C    -0.369512  -2.183461  0.794385
O    0.614205  -1.788321  0.068484
H    0.401028  0.160592  2.104651
H    -1.194694  -1.532375  2.717939
H    -2.185741  -1.107211  1.313850
N    -0.753165  -3.440531  0.808627
C    -0.175895  -4.545244  0.034683
H    -1.532778  -3.681804  1.421767
H    -0.957257  -4.990047  -0.593220
H    0.204476  -5.306711  0.726482
H    0.636442  -4.170812  -0.590250
Pb    1.979692  -0.086936  -0.611273
