20
Energy: -602566.362854 eV PBE+vdW (tier 2 basis)
C    0.305191  0.041363  0.132834
C    -0.057812  0.399039  1.532270
O    0.879489  0.390016  2.472914
H    1.073723  0.733153  -0.241949
H    -0.559937  0.088384  -0.536242
H    0.714456  -0.979040  0.102316
N    -1.273377  0.719030  1.846627
C    -1.872219  1.100467  3.115528
C    -3.353172  1.328869  2.702342
O    -3.626943  1.147545  1.504401
H    -2.092302  0.751759  1.146605
H    -1.778987  0.300856  3.864379
H    -1.418150  2.017283  3.518163
N    -4.236509  1.699353  3.629972
C    -3.985631  1.924186  5.052399
H    -5.185798  1.826732  3.281236
H    -3.245974  2.720533  5.209439
H    -3.657053  1.003810  5.553763
H    -4.922598  2.242537  5.516788
Pb    2.870603  0.098128  3.116215
