37
Energy: -177481.371171 eV PBE+vdW (tier 2 basis)
C    -1.488854  1.621621  0.082047
C    -0.844238  0.899907  1.224597
O    0.311239  0.421787  1.063941
H    -2.488193  2.006284  0.310884
H    -1.554604  0.937074  -0.774523
H    -0.840064  2.453070  -0.223495
N    -1.559491  0.798495  2.368245
C    -1.249398  0.068683  3.611531
C    -0.095324  0.758791  4.368737
O    1.116920  0.702147  4.006154
H    -2.476275  1.234056  2.336434
H    -2.142940  0.211388  4.226140
C    -1.108314  -1.487282  3.387842
C    -0.103254  -2.200287  4.245477
C    -0.165237  -2.441568  5.614318
C    1.171756  -2.678051  3.824660
N    1.002274  -3.003564  6.045872
C    1.861493  -3.151796  4.981838
C    1.851333  -2.747540  2.552923
C    3.159240  -3.651557  4.928684
C    3.187965  -3.251613  2.528570
C    3.824455  -3.670328  3.693768
H    -0.883835  -1.670601  2.329143
H    -2.109851  -1.911988  3.535956
H    -0.976646  -2.258709  6.312187
H    1.188695  -3.299867  6.998801
H    1.263165  -2.840057  1.629519
H    3.656621  -4.023904  5.824867
H    3.688132  -3.365069  1.567243
H    4.839785  -4.058874  3.641375
N    -0.394146  1.478195  5.448398
C    -1.700044  1.757360  6.055069
H    0.415071  1.934284  5.870289
H    -2.337089  2.349694  5.386377
H    -1.527194  2.344625  6.961284
H    -2.215389  0.834762  6.348412
Cd    1.838283  -0.489470  2.331235
