37
Energy: -177481.491137 eV PBE+vdW (tier 2 basis)
C    -0.141458  1.282804  1.169590
C    -0.713049  0.221212  2.057107
O    -0.438979  0.248639  3.287959
H    -0.439764  1.187830  0.120331
H    0.954415  1.244068  1.236228
H    -0.449186  2.266252  1.548448
N    -1.489401  -0.717542  1.470997
C    -2.097352  -1.930980  2.048684
C    -3.244161  -1.566309  3.017078
O    -3.078129  -1.058609  4.163658
H    -1.622527  -0.597684  0.471331
H    -2.575712  -2.417596  1.190411
C    -1.019754  -2.947900  2.593021
C    -1.401539  -3.738121  3.811065
C    -2.342200  -4.758839  3.906590
C    -0.933696  -3.515896  5.139047
N    -2.491091  -5.140349  5.209471
C    -1.656113  -4.391328  6.005982
C    0.042548  -2.630547  5.728358
C    -1.468333  -4.403962  7.384819
C    0.205068  -2.653382  7.147576
C    -0.549851  -3.505926  7.948514
H    -0.087790  -2.401237  2.786014
H    -0.779433  -3.619882  1.758749
H    -2.910949  -5.249504  3.122627
H    -3.094080  -5.891251  5.530743
H    0.900949  -2.296323  5.129622
H    -2.019364  -5.096448  8.022022
H    0.980723  -2.033667  7.596465
H    -0.395395  -3.507684  9.025894
N    -4.478221  -1.787194  2.575615
C    -5.681640  -1.452803  3.341730
H    -4.601924  -2.163402  1.641046
H    -6.549239  -1.868901  2.823563
H    -5.793529  -0.364525  3.424051
H    -5.615018  -1.878315  4.348916
Cd    -1.118688  -0.791201  5.082866
