37
Energy: -177481.411575 eV PBE+vdW (tier 2 basis)
C    0.955611  0.498155  1.265259
C    0.457255  0.507970  2.679401
O    1.280595  0.773546  3.596997
H    1.326711  1.502462  1.018243
H    0.197083  0.208260  0.530548
H    1.813172  -0.182460  1.193000
N    -0.857971  0.256991  2.860715
C    -1.678429  0.205026  4.082927
C    -1.545521  1.489562  4.924714
O    -0.679121  1.628978  5.838559
H    -1.366319  0.068210  2.002225
H    -2.704968  0.215639  3.700233
C    -1.579930  -1.129589  4.922359
C    -0.291558  -1.897976  4.927065
C    0.089508  -2.822406  3.960284
C    0.778674  -1.877041  5.879268
N    1.318354  -3.340279  4.251163
C    1.786327  -2.785195  5.418380
C    1.034158  -1.162625  7.109157
C    2.971035  -3.014381  6.113131
C    2.265220  -1.394146  7.785870
C    3.208564  -2.295006  7.289784
H    -2.360116  -1.788767  4.520434
H    -1.895076  -0.896403  5.948890
H    -0.458404  -3.163890  3.087306
H    1.785526  -4.067021  3.717825
H    0.205925  -0.710561  7.666044
H    3.702471  -3.738481  5.753238
H    2.440401  -0.893871  8.737671
H    4.131867  -2.462020  7.841392
N    -2.419241  2.469094  4.715762
C    -3.532368  2.532656  3.763367
H    -2.286360  3.275894  5.326348
H    -3.183994  2.394032  2.732965
H    -3.977243  3.528980  3.835746
H    -4.310977  1.797638  4.005214
Cd    1.277940  0.656732  5.757750
