37
Energy: -177480.626435 eV PBE+vdW (tier 2 basis)
C    0.781547  -0.728358  0.733583
C    0.416782  -0.725099  2.182164
O    1.225398  -1.348675  2.971664
H    0.795902  -1.768976  0.379143
H    0.079297  -0.151367  0.123463
H    1.797992  -0.334516  0.607552
N    -0.698217  -0.110227  2.551196
C    -1.458955  -0.163383  3.797313
C    -2.935286  -0.351159  3.290292
O    -3.191650  0.082769  2.168323
H    -1.335976  0.220675  1.802927
H    -1.148047  -1.036279  4.397048
C    -1.426121  1.162094  4.618088
C    -0.085451  1.705737  5.014139
C    0.479425  2.881861  4.520510
C    0.853501  1.200657  5.958866
N    1.691675  3.109859  5.097989
C    1.972128  2.101234  5.988412
C    0.907165  0.034651  6.824498
C    3.058943  1.925300  6.835722
C    2.052816  -0.124602  7.679843
C    3.094868  0.793902  7.670579
H    -2.046125  1.007023  5.513878
H    -1.950275  1.921345  4.021428
H    0.069863  3.580910  3.796964
H    2.276786  3.922036  4.922292
H    -0.025019  -0.461937  7.119209
H    3.871632  2.652241  6.865302
H    2.069210  -0.962064  8.376916
H    3.941732  0.652224  8.339665
N    -3.834429  -0.912591  4.114743
C    -3.608648  -1.533907  5.415223
H    -4.776188  -0.949139  3.728778
H    -4.555870  -1.960650  5.757041
H    -3.287976  -0.806173  6.174153
H    -2.884333  -2.358504  5.354506
Cd    1.369471  -1.199443  5.028792
