37
Energy: -177480.361338 eV PBE+vdW (tier 2 basis)
C    -0.455086  -0.684134  0.150889
C    -0.919520  0.038493  1.378258
O    -0.866646  -0.550876  2.498758
H    0.625184  -0.868678  0.233967
H    -0.938849  -1.668657  0.116467
H    -0.656310  -0.146976  -0.781876
N    -1.380901  1.293171  1.218705
C    -2.054174  2.178554  2.180548
C    -1.055105  2.919082  3.083930
O    -0.216363  2.321635  3.820279
H    -1.363559  1.636868  0.263140
H    -2.552027  2.927964  1.550281
C    -3.177196  1.502417  3.029545
C    -4.225812  0.811991  2.224835
C    -4.313652  -0.573978  1.998151
C    -5.346973  1.401237  1.563090
N    -5.403808  -0.838565  1.243868
C    -6.074728  0.345869  0.949189
C    -5.831576  2.722304  1.441394
C    -7.236659  0.557997  0.223720
C    -6.999407  2.948848  0.714146
C    -7.689908  1.887690  0.113880
H    -3.634444  2.311360  3.619457
H    -2.740377  0.797469  3.749831
H    -3.673287  -1.372030  2.360418
H    -5.712939  -1.767444  0.972538
H    -5.320602  3.556689  1.922966
H    -7.786601  -0.259081  -0.241865
H    -7.388631  3.960767  0.617797
H    -8.602291  2.088620  -0.445455
N    -1.117200  4.245805  3.092155
C    -0.272602  5.098438  3.934035
H    -1.750651  4.704560  2.444261
H    0.728364  5.199616  3.495660
H    -0.182619  4.658055  4.931788
H    -0.738341  6.084848  4.006962
Cd    0.000295  0.198071  4.391293
