37
Energy: -177480.538868 eV PBE+vdW (tier 2 basis)
C    0.507780  0.856827  1.124551
C    -0.242905  0.219669  2.253400
O    0.099172  0.429051  3.487876
H    1.581798  0.664736  1.249387
H    0.192141  0.489113  0.142940
H    0.352785  1.947936  1.137157
N    -1.251702  -0.570645  1.962317
C    -2.113505  -1.410759  2.799012
C    -2.545306  -2.516105  1.774534
O    -2.415552  -2.256247  0.572095
H    -1.446438  -0.853048  0.968918
H    -1.532755  -1.830310  3.632009
C    -3.380243  -0.671856  3.334739
C    -3.088281  0.241611  4.485418
C    -3.066072  -0.123010  5.829309
C    -2.612914  1.578691  4.438765
N    -2.546905  0.885408  6.592814
C    -2.203345  1.933938  5.777841
C    -2.433356  2.509203  3.392763
C    -1.424568  3.054408  6.038189
C    -1.704318  3.668120  3.630973
C    -1.118183  3.919383  4.932496
H    -4.103266  -1.437460  3.647196
H    -3.851749  -0.133212  2.500982
H    -3.387873  -1.050346  6.294689
H    -2.436917  0.853949  7.602240
H    -2.832233  2.311316  2.398297
H    -1.060230  3.297862  7.036639
H    -1.568175  4.413876  2.848078
H    -0.646627  4.883266  5.131130
N    -3.056582  -3.646633  2.273053
C    -3.539482  -4.748954  1.438209
H    -3.052071  -3.784161  3.278522
H    -3.533432  -4.421251  0.395601
H    -4.560298  -5.018852  1.731578
H    -2.886322  -5.623220  1.547064
Cd    0.451928  2.358706  4.238220
