37
Energy: -177480.505974 eV PBE+vdW (tier 2 basis)
C    -0.793548  -1.509642  -0.266489
C    -0.435906  -0.713144  0.942569
O    0.799203  -0.359983  1.070947
H    -0.177670  -2.419790  -0.283677
H    -1.851780  -1.789491  -0.288348
H    -0.542926  -0.938232  -1.170127
N    -1.380722  -0.434184  1.831463
C    -1.238225  0.178983  3.145708
C    -2.319062  -0.542103  4.007609
O    -3.399428  -0.751426  3.465123
H    -2.338241  -0.775134  1.673508
H    -0.222459  -0.017427  3.520748
C    -1.546967  1.724930  3.135648
C    -0.767966  2.466142  4.178089
C    -1.072184  2.583031  5.539873
C    0.505432  3.060639  4.016284
N    -0.045390  3.181153  6.199906
C    0.959953  3.482340  5.305707
C    1.352982  3.339180  2.866924
C    2.188186  4.091353  5.504899
C    2.624930  3.982494  3.113363
C    3.031447  4.311476  4.391756
H    -2.629767  1.860120  3.259515
H    -1.325977  2.125870  2.134893
H    -1.968080  2.268693  6.067315
H    -0.042678  3.409889  7.190074
H    0.840885  3.676828  1.949678
H    2.504176  4.414295  6.497917
H    3.240405  4.266144  2.259757
H    3.991186  4.802202  4.543957
N    -2.044118  -0.833718  5.297742
C    -0.737156  -0.930325  5.945356
H    -2.819377  -1.304618  5.763501
H    -0.177357  -1.817931  5.617730
H    -0.894494  -1.009512  7.025663
H    -0.134090  -0.031728  5.768438
Cd    1.598592  1.324878  1.982003
