37
Energy: -177480.36606 eV PBE+vdW (tier 2 basis)
C    0.464177  -1.447188  5.159926
C    0.032254  -0.911714  3.831696
O    0.698809  -1.212985  2.799607
H    1.500077  -1.141265  5.355208
H    -0.177042  -1.129053  5.988810
H    0.462890  -2.545157  5.106857
N    -1.075484  -0.143291  3.792844
C    -1.823293  0.268329  2.595504
C    -1.298554  1.629428  2.093941
O    -0.156277  1.715094  1.545619
H    -1.516794  0.051024  4.688538
H    -1.576635  -0.452821  1.800886
C    -3.336362  0.157725  2.906096
C    -4.259602  0.503603  1.778445
C    -4.375083  -0.168063  0.549951
C    -5.230587  1.553222  1.757476
N    -5.335878  0.423809  -0.198050
C    -5.893025  1.488623  0.500838
C    -5.633311  2.537244  2.688805
C    -6.908307  2.363304  0.141652
C    -6.648479  3.424581  2.335803
C    -7.274693  3.341841  1.083605
H    -3.579345  0.778622  3.783184
H    -3.509368  -0.881494  3.226988
H    -3.848132  -1.043777  0.184216
H    -5.632400  0.109141  -1.117245
H    -5.193963  2.590697  3.687180
H    -7.412211  2.299762  -0.822111
H    -6.975583  4.181044  3.046939
H    -8.071867  4.040825  0.835522
N    -2.025592  2.721685  2.260406
C    -1.592302  4.055954  1.835431
H    -2.965285  2.628407  2.634416
H    -0.677744  4.344863  2.366066
H    -2.389392  4.765889  2.069266
H    -1.394765  4.066981  0.756928
Cd    1.292151  0.093111  1.130754
