37
Energy: -177480.644703 eV PBE+vdW (tier 2 basis)
C    0.486321  0.870470  0.494190
C    0.208925  0.495422  1.918576
O    1.061618  0.554480  2.813762
H    -0.357965  0.697463  -0.182108
H    1.361186  0.311372  0.140457
H    0.755300  1.935170  0.463143
N    -1.069033  0.071747  2.220070
C    -1.473434  -0.124606  3.607042
C    -0.995225  -1.522321  4.095911
O    -1.732398  -2.569802  4.279956
H    -1.751372  -0.031451  1.475755
H    -0.875341  0.593263  4.190897
C    -2.964596  0.224658  3.784049
C    -3.431487  0.363100  5.207870
C    -2.901716  1.207795  6.189158
C    -4.471203  -0.361250  5.849154
N    -3.542711  1.014432  7.372903
C    -4.507791  0.044537  7.222204
C    -5.410572  -1.385839  5.415808
C    -5.396449  -0.496735  8.139461
C    -6.306004  -1.935816  6.396783
C    -6.283222  -1.507683  7.714099
H    -3.599249  -0.497100  3.240447
H    -3.120152  1.176378  3.253270
H    -2.107329  1.944114  6.108367
H    -3.347291  1.525353  8.229520
H    -5.772791  -1.370190  4.378519
H    -5.418480  -0.151953  9.174122
H    -7.051845  -2.660642  6.072060
H    -6.986717  -1.930231  8.429393
N    0.306002  -1.618448  4.237998
C    1.033230  -2.836094  4.584967
H    0.833498  -0.774886  3.903894
H    1.998821  -2.549402  5.011109
H    1.206162  -3.447225  3.688698
H    0.465428  -3.425049  5.311417
Cd    -3.688915  -2.724866  4.946097
