37
Energy: -177481.07202 eV PBE+vdW (tier 2 basis)
C    0.923276  -0.003222  1.025690
C    0.128903  -0.117985  2.284924
O    0.710703  -0.413697  3.366719
H    1.418432  -0.963407  0.827782
H    1.718338  0.739973  1.172889
H    0.318652  0.280023  0.157652
N    -1.211329  0.107162  2.219938
C    -2.003358  0.075250  3.436800
C    -2.385286  -1.366488  3.843036
O    -1.711518  -1.962203  4.739653
H    -1.624546  0.334370  1.319889
H    -1.265099  0.370023  4.180946
C    -3.093884  1.137357  3.685127
C    -3.367505  1.086935  5.170119
C    -4.586256  0.832151  5.776210
C    -2.391447  1.055289  6.226995
N    -4.412667  0.632009  7.120638
C    -3.082297  0.722983  7.433000
C    -0.984512  1.260658  6.316054
C    -2.431589  0.507773  8.652808
C    -0.320697  1.012120  7.561248
C    -1.043563  0.610691  8.698341
H    -4.015372  0.967695  3.111882
H    -2.697996  2.115488  3.371305
H    -5.576269  0.777955  5.334150
H    -5.161997  0.451804  7.782050
H    -0.454856  1.843155  5.554580
H    -2.995661  0.259253  9.552148
H    0.733661  1.276926  7.659711
H    -0.517590  0.438861  9.635369
N    -3.389122  -1.964433  3.220314
C    -3.818615  -3.345859  3.454373
H    -3.906197  -1.426626  2.529855
H    -3.036415  -3.874899  4.003773
H    -3.990930  -3.835764  2.490085
H    -4.748138  -3.360715  4.037147
Cd    -0.001258  -0.773606  5.497799
