37
Energy: -177480.258492 eV PBE+vdW (tier 2 basis)
C    -2.526463  2.927311  2.115425
C    -2.572242  1.657228  2.905517
O    -2.770959  1.723268  4.154078
H    -2.343127  2.766927  1.047773
H    -1.752362  3.585721  2.529804
H    -3.486232  3.447967  2.241602
N    -2.420452  0.499244  2.236196
C    -2.710681  -0.852898  2.721958
C    -1.474282  -1.513366  3.372506
O    -0.923279  -0.978634  4.383319
H    -2.265897  0.574391  1.231737
H    -3.418525  -0.745603  3.561677
C    -3.453846  -1.656936  1.632098
C    -3.018792  -1.545573  0.193467
C    -3.951671  -1.730299  -0.843036
C    -1.747589  -1.329754  -0.447478
N    -3.333100  -1.655616  -2.038925
C    -1.980694  -1.406120  -1.854923
C    -0.422466  -1.060347  -0.020296
C    -0.982785  -1.247650  -2.805122
C    0.585127  -0.896521  -0.966987
C    0.315881  -0.991354  -2.339850
H    -4.506786  -1.344557  1.679282
H    -3.480886  -2.713958  1.950583
H    -5.018506  -1.920651  -0.773164
H    -3.791862  -1.761594  -2.939382
H    -0.165257  -0.973331  1.033567
H    -1.192083  -1.318670  -3.871946
H    1.602040  -0.690778  -0.637160
H    1.123238  -0.861670  -3.058651
N    -1.013302  -2.659440  2.894928
C    0.116240  -3.399939  3.460701
H    -1.432030  -3.028399  2.045695
H    -0.053450  -4.469974  3.307418
H    0.193921  -3.183263  4.529231
H    1.051984  -3.107050  2.966333
Cd    -1.815823  0.536885  5.730025
