37
Energy: -177480.394357 eV PBE+vdW (tier 2 basis)
C    -1.132118  -0.736135  -0.728019
C    -0.804453  -0.176553  0.616111
O    0.320316  0.419942  0.754369
H    -2.105548  -1.237389  -0.757679
H    -0.349275  -1.455245  -1.008182
H    -1.109230  0.066392  -1.476944
N    -1.681864  -0.348724  1.615038
C    -1.453249  -0.019634  3.017044
C    -1.653185  -1.174449  4.042014
O    -0.834931  -1.218203  4.958156
H    -2.542721  -0.828505  1.365660
H    -0.370642  0.137540  3.112470
C    -2.194147  1.275754  3.523485
C    -1.400861  1.922288  4.619811
C    -1.385230  1.546371  5.972468
C    -0.358318  2.863465  4.470158
N    -0.396545  2.198661  6.626713
C    0.280769  3.014173  5.744337
C    0.145506  3.654915  3.359806
C    1.347311  3.867954  5.954864
C    1.252772  4.552376  3.621094
C    1.839806  4.628095  4.866882
H    -3.206919  1.020554  3.860554
H    -2.324711  1.966640  2.678008
H    -2.021962  0.838534  6.492794
H    -0.191368  2.099846  7.617202
H    -0.591766  4.018190  2.627164
H    1.801090  3.972231  6.941273
H    1.586873  5.212978  2.821265
H    2.667149  5.315650  5.033452
N    -2.709792  -2.013935  3.953434
C    -3.817870  -2.047010  3.005467
H    -2.703651  -2.727739  4.679929
H    -4.655768  -2.576368  3.470436
H    -3.566632  -2.592123  2.081618
H    -4.184948  -1.038661  2.769395
Cd    0.837989  2.060699  1.965567
