37
Energy: -177480.268829 eV PBE+vdW (tier 2 basis)
C    -0.774056  -0.108386  -0.033962
C    -0.420507  -0.242709  1.415757
O    0.626766  -0.878302  1.730264
H    0.034584  0.425468  -0.551015
H    -0.821053  -1.113637  -0.474398
H    -1.722834  0.408170  -0.212757
N    -1.263319  0.309632  2.311483
C    -1.318697  0.198075  3.781343
C    -0.338525  1.156748  4.471472
O    0.913191  1.106351  4.274704
H    -2.059342  0.787589  1.899152
H    -2.335557  0.522445  4.028684
C    -1.183271  -1.255499  4.330880
C    -1.719349  -1.379904  5.717666
C    -0.979273  -1.312772  6.910169
C    -3.081131  -1.601895  6.100018
N    -1.809547  -1.474360  7.966734
C    -3.115196  -1.656994  7.519318
C    -4.283074  -1.779473  5.381664
C    -4.284283  -1.874776  8.234469
C    -5.464709  -1.998025  6.090175
C    -5.467174  -2.044839  7.490636
H    -0.134184  -1.589852  4.298376
H    -1.740024  -1.912545  3.647977
H    0.089912  -1.193668  7.055164
H    -1.514025  -1.515890  8.937819
H    -4.295737  -1.768228  4.291359
H    -4.297519  -1.919675  9.322899
H    -6.398072  -2.145871  5.549925
H    -6.401715  -2.223281  8.020192
N    -0.814706  2.059522  5.322915
C    -2.208790  2.350975  5.678610
H    -0.095911  2.648457  5.744543
H    -2.198353  3.119563  6.456322
H    -2.711969  1.464100  6.080867
H    -2.766205  2.747734  4.820633
Cd    2.163817  -0.373427  3.198893
