37
Energy: -177479.928523 eV PBE+vdW (tier 2 basis)
C    -3.224339  -1.874908  -0.528090
C    -2.172162  -1.320304  0.371862
O    -0.953559  -1.400195  0.043349
H    -3.392549  -1.187614  -1.371498
H    -4.170798  -2.069389  -0.014689
H    -2.843028  -2.807475  -0.963838
N    -2.506496  -0.738842  1.557626
C    -3.563778  0.254180  1.711618
C    -3.053313  1.578447  1.083242
O    -1.816860  1.789230  0.909576
H    -1.698203  -0.565856  2.157527
H    -4.453784  -0.087343  1.165918
C    -3.906428  0.395008  3.225764
C    -5.095280  1.238762  3.556871
C    -6.420500  0.771698  3.668576
C    -5.129912  2.625922  3.898349
N    -7.228057  1.788050  4.041226
C    -6.481147  2.953163  4.199505
C    -4.143868  3.632668  4.009404
C    -6.876553  4.222681  4.590811
C    -4.529807  4.913209  4.401368
C    -5.871419  5.205922  4.685750
H    -3.019463  0.784386  3.749079
H    -4.067132  -0.628358  3.593638
H    -6.810931  -0.232052  3.529529
H    -8.224800  1.702352  4.220439
H    -3.094231  3.414174  3.810391
H    -7.913212  4.460077  4.827093
H    -3.780617  5.696357  4.504324
H    -6.147106  6.212031  4.998056
N    -3.967770  2.486320  0.763590
C    -3.683582  3.818483  0.231564
H    -4.935421  2.275744  0.996222
H    -4.394187  4.045962  -0.569956
H    -2.664338  3.839200  -0.160710
H    -3.781180  4.570319  1.026114
Cd    0.058380  0.603539  0.268361
