37
Energy: -177480.285667 eV PBE+vdW (tier 2 basis)
C    -1.917612  1.850724  1.128464
C    -1.247035  1.067663  2.216628
O    -0.212897  1.545358  2.755360
H    -2.759344  1.326967  0.663604
H    -1.175571  2.102141  0.360171
H    -2.273441  2.801020  1.549938
N    -1.796233  -0.120013  2.546810
C    -1.379092  -1.090996  3.570880
C    -1.499328  -0.490718  4.990579
O    -0.529796  0.089398  5.564944
H    -2.604171  -0.389255  1.994549
H    -2.124872  -1.891775  3.502560
C    -0.005657  -1.779317  3.346074
C    0.130437  -2.587566  2.106477
C    0.061848  -3.993357  2.068009
C    0.408216  -2.159754  0.767501
N    0.237323  -4.418029  0.799796
C    0.464133  -3.329836  -0.038791
C    0.682973  -0.914540  0.163625
C    0.737135  -3.298871  -1.398235
C    0.970135  -0.871191  -1.200999
C    0.985162  -2.039780  -1.973425
H    0.160291  -2.422484  4.223124
H    0.821062  -1.025686  3.364801
H    -0.101069  -4.697227  2.878676
H    0.224621  -5.390766  0.505584
H    0.703316  0.003791  0.748645
H    0.772565  -4.205739  -2.000851
H    1.194332  0.082739  -1.675456
H    1.206631  -1.978897  -3.037711
N    -2.653558  -0.610626  5.637797
C    -3.886346  -1.276000  5.206143
H    -2.656022  -0.179508  6.563077
H    -4.295610  -0.810471  4.301110
H    -4.624284  -1.162603  6.004993
H    -3.729585  -2.350034  5.044449
Cd    1.124117  1.048801  4.462645
