37
Energy: -177479.966411 eV PBE+vdW (tier 2 basis)
C    -1.712992  0.057025  -0.880255
C    -0.781500  0.207141  0.277336
O    0.466590  0.267563  0.083524
H    -1.257785  -0.642488  -1.593185
H    -2.702884  -0.308968  -0.588444
H    -1.811221  1.016084  -1.411110
N    -1.266879  0.254909  1.548113
C    -2.385312  1.107636  1.939064
C    -1.836232  2.553280  2.102675
O    -0.594861  2.791366  2.092700
H    -0.530086  0.210398  2.253951
H    -3.117795  1.100833  1.120674
C    -3.051676  0.573260  3.234941
C    -3.494661  -0.847852  3.103283
C    -2.936372  -1.942253  3.792894
C    -4.541994  -1.377827  2.289551
N    -3.577207  -3.075035  3.437647
C    -4.577474  -2.781965  2.512091
C    -5.487371  -0.807055  1.408252
C    -5.491304  -3.618120  1.892961
C    -6.410910  -1.638563  0.774545
C    -6.413179  -3.019297  1.009277
H    -3.911193  1.214845  3.482064
H    -2.346040  0.674888  4.072591
H    -2.135975  -1.956002  4.526329
H    -3.380284  -3.998174  3.814191
H    -5.523396  0.269577  1.238711
H    -5.512991  -4.691530  2.077805
H    -7.149760  -1.210824  0.099270
H    -7.148222  -3.648293  0.509460
N    -2.712086  3.533827  2.288193
C    -2.331576  4.936582  2.491775
H    -3.702067  3.308658  2.303913
H    -3.241206  5.520107  2.654070
H    -1.807392  5.321513  1.609008
H    -1.677536  5.029566  3.366253
Cd    1.370135  2.075905  1.100021
