37
Energy: -177480.308738 eV PBE+vdW (tier 2 basis)
C    -0.924312  0.783776  0.167570
C    -0.568098  0.366839  1.562783
O    0.483185  -0.299159  1.746514
H    -0.987403  -0.113088  -0.462538
H    -1.864403  1.341296  0.099932
H    -0.108454  1.398598  -0.235585
N    -1.414141  0.733970  2.550891
C    -1.338286  0.453395  3.997945
C    -0.095819  1.135984  4.619762
O    0.965319  0.492134  4.869712
H    -2.237834  1.244922  2.248599
H    -2.219838  0.953266  4.417192
C    -1.480325  -1.043406  4.363945
C    -1.945803  -1.293972  5.751836
C    -1.285000  -0.946581  6.949113
C    -3.141456  -1.984100  6.137906
N    -2.016726  -1.371528  8.001063
C    -3.168444  -2.015594  7.556733
C    -4.201302  -2.581652  5.425722
C    -4.196094  -2.604327  8.279388
C    -5.237522  -3.185144  6.140869
C    -5.237703  -3.196474  7.540990
H    -0.511814  -1.586991  4.194403
H    -2.178820  -1.492491  3.646711
H    -0.324839  -0.463627  7.098327
H    -1.747897  -1.265006  8.975371
H    -4.220273  -2.586408  4.335795
H    -4.207076  -2.612923  9.368700
H    -6.058222  -3.656339  5.603043
H    -6.059160  -3.671706  8.074756
N    -0.158821  2.434456  4.899359
C    -1.291097  3.349951  4.739630
H    0.709177  2.825232  5.266296
H    -1.011161  4.311848  5.177609
H    -2.179720  2.985508  5.270230
H    -1.525821  3.513200  3.680175
Cd    1.682005  -1.092862  3.437252
