21
Energy: -169055.033206 eV PBE+vdW (tier 2 basis)
N    0.741390  -1.327403  -0.218991
C    0.448166  -0.497257  0.990859
C    1.780425  -0.079844  1.627025
O    2.818155  -0.754762  1.536278
H    -0.121388  -1.759030  -0.566070
H    1.103217  -0.747630  -0.984655
H    -0.080699  0.421569  0.698289
C    -0.463203  -1.263082  1.992692
C    0.090693  -2.403158  2.810202
N    1.016811  -3.364426  2.377740
C    -0.322554  -2.775560  4.066175
C    1.152734  -4.268792  3.355037
N    0.346457  -3.936016  4.374089
H    -1.335327  -1.612772  1.414192
H    -0.865442  -0.518741  2.692699
H    -1.040851  -2.326266  4.742249
H    1.802913  -5.136176  3.344112
H    0.243206  -4.468534  5.236258
O    1.694547  1.042974  2.290373
H    2.550593  1.281842  2.712629
Cd    2.235159  -2.788934  0.689820
