21
Energy: -169053.389071 eV PBE+vdW (tier 2 basis)
N    0.490851  0.078784  0.165057
C    0.250238  -0.274787  1.589449
C    1.565184  -0.196945  2.396682
O    2.494385  0.551093  2.050923
H    0.876229  -0.737262  -0.330612
H    -0.483774  0.210956  -0.248801
H    -0.369491  0.538307  2.010180
C    -0.566512  -1.591793  1.691763
C    -1.904390  -1.407367  1.036798
N    -2.065318  -0.556772  -0.031553
C    -3.118653  -2.035194  1.308922
C    -3.333857  -0.656489  -0.410836
N    -3.988837  -1.554967  0.375349
H    -0.729437  -1.874543  2.743373
H    0.002074  -2.413775  1.225408
H    -3.403564  -2.776836  2.046535
H    -3.810129  -0.102329  -1.212729
H    -4.972924  -1.804569  0.296701
O    1.708982  -0.859879  3.511315
H    0.954472  -1.442473  3.729452
Cd    2.139667  1.637584  0.122319
