21
Energy: -169054.406142 eV PBE+vdW (tier 2 basis)
N    -0.334413  1.062955  1.246239
C    0.583906  0.073179  1.929615
C    1.970821  0.380879  1.231495
O    3.050378  -0.269900  1.560143
H    -1.061317  0.627405  0.665966
H    -0.783633  1.725071  1.889424
H    0.650281  0.374946  2.983842
C    0.067914  -1.397339  1.815445
C    0.129034  -2.249245  3.054772
N    1.315673  -2.704723  3.643718
C    -0.907542  -2.807379  3.760406
C    0.993242  -3.501390  4.670065
N    -0.342861  -3.576056  4.752033
H    0.580833  -1.906044  0.982716
H    -0.990357  -1.379171  1.521462
H    -1.981056  -2.737481  3.628560
H    1.682216  -4.012818  5.333064
H    -0.854771  -4.128846  5.438441
O    1.967955  1.271220  0.391211
H    0.368770  1.575519  0.605499
Cd    3.099311  -1.853489  2.869454
