21
Energy: -169052.954928 eV PBE+vdW (tier 2 basis)
N    -0.115914  0.003844  0.120144
C    -0.123605  0.145042  1.529098
C    1.328339  0.269235  2.163123
O    1.543573  -0.054568  3.305920
H    0.076284  0.827457  -0.446670
H    0.241646  -0.861383  -0.282128
H    -0.585400  1.115462  1.781747
C    -0.867417  -1.000561  2.256499
C    -2.354667  -0.961445  2.116148
N    -3.223081  -1.447108  3.100339
C    -3.143927  -0.504201  1.089178
C    -4.484157  -1.287723  2.666931
N    -4.453449  -0.715385  1.457395
H    -0.582014  -0.914565  3.318942
H    -0.469627  -1.967150  1.904814
H    -2.869782  -0.048972  0.144486
H    -5.390160  -1.566294  3.193547
H    -5.273370  -0.475900  0.902281
O    2.185592  0.792424  1.297690
H    3.063662  0.914046  1.721901
Cd    -2.675275  -2.398208  5.002143
