21
Energy: -169053.776289 eV PBE+vdW (tier 2 basis)
N    0.203778  -0.859865  0.468709
C    0.010920  -0.060762  1.659273
C    1.233618  0.857015  1.882610
O    2.326964  0.536534  2.433404
H    1.037810  -1.443499  0.448064
H    0.113297  -0.352426  -0.410043
H    -0.833884  0.614346  1.458657
C    -0.426675  -0.920539  2.897774
C    -0.025441  -2.363700  2.958067
N    1.245481  -2.815161  3.343207
C    -0.791390  -3.483926  2.756495
C    1.237053  -4.156054  3.366062
N    0.011933  -4.571031  3.016884
H    -1.523861  -0.910866  2.887558
H    -0.162227  -0.405319  3.837909
H    -1.830238  -3.588909  2.466119
H    2.063473  -4.806773  3.628556
H    -0.278793  -5.546958  2.969068
O    1.236391  2.059521  1.373807
H    0.379836  2.321885  0.979135
Cd    2.672958  -1.280516  3.424684
