21
Energy: -169053.204325 eV PBE+vdW (tier 2 basis)
N    0.793129  -0.149766  0.215847
C    0.004773  -0.133399  1.394306
C    0.770019  0.449074  2.615605
O    1.772706  1.060025  2.675806
H    0.876270  0.728003  -0.291307
H    1.675862  -0.653955  0.248777
H    -0.815937  0.593208  1.259021
C    -0.699180  -1.507182  1.642219
C    0.155016  -2.702505  1.918578
N    0.473809  -3.125381  3.214729
C    0.712490  -3.614083  1.056148
C    1.197973  -4.249898  3.128451
N    1.352720  -4.554188  1.831834
H    -1.278893  -1.696637  0.730001
H    -1.454788  -1.388106  2.439952
H    0.693250  -3.667620  -0.026626
H    1.584463  -4.838674  3.952837
H    1.841425  -5.377701  1.482263
O    0.001049  0.230046  3.919604
H    0.319433  0.948637  4.513876
Cd    -0.086189  -1.803885  4.794867
