21
Energy: -169054.342239 eV PBE+vdW (tier 2 basis)
N    -1.023995  0.275213  1.371165
C    0.311251  0.017544  2.047903
C    1.336649  0.170411  0.897402
O    0.960443  0.176844  -0.257849
H    -1.243889  1.277608  1.419077
H    -0.823512  0.095439  0.356936
H    0.474318  0.792150  2.808220
C    0.456231  -1.396061  2.674942
C    -0.287020  -1.708618  3.941141
N    -1.685251  -1.822881  4.008756
C    0.198828  -2.046022  5.178817
C    -2.017978  -2.202134  5.249444
N    -0.892389  -2.345176  5.963554
H    1.525908  -1.533586  2.883447
H    0.221220  -2.153686  1.904671
H    1.214203  -2.107564  5.553307
H    -3.018600  -2.381831  5.626306
H    -0.855557  -2.652800  6.934660
O    2.578696  0.256174  1.345905
H    3.205316  0.345098  0.594728
Cd    -2.581127  -0.932268  2.313840
