21
Energy: -169054.291916 eV PBE+vdW (tier 2 basis)
N    -1.194382  0.379573  0.891600
C    -0.128338  -0.015647  1.744524
C    1.261354  0.401726  1.097561
O    1.320596  1.557392  0.595586
H    -1.257032  1.376047  0.689197
H    -2.101362  -0.035444  1.091646
H    -0.058858  0.588994  2.675640
C    -0.207134  -1.483777  2.179380
C    -0.289326  -2.519394  1.098760
N    -0.060863  -3.862349  1.379302
C    -0.613628  -2.477062  -0.234110
C    -0.233520  -4.609623  0.282461
N    -0.566456  -3.775958  -0.704805
H    -1.092407  -1.580334  2.831311
H    0.660401  -1.698355  2.818349
H    -0.884703  -1.642689  -0.867049
H    -0.123753  -5.685890  0.211931
H    -0.768803  -4.067800  -1.658944
O    2.239776  -0.389053  1.195257
H    0.195875  -4.243976  2.287588
Cd    3.552564  1.282620  0.302812
