21
Energy: -169054.441487 eV PBE+vdW (tier 2 basis)
N    -0.114602  0.557321  0.215054
C    0.144342  0.111259  1.641385
C    1.647646  0.039922  1.874324
O    2.305905  -0.552707  0.947758
H    0.560358  0.077876  -0.408769
H    -1.072256  0.341423  -0.100547
H    -0.353263  0.809432  2.322266
C    -0.351918  -1.363948  1.806675
C    0.061210  -2.120077  3.045325
N    1.341185  -2.624367  3.343946
C    -0.799879  -2.605747  3.998349
C    1.223363  -3.367070  4.449735
N    -0.055597  -3.373834  4.857496
H    -0.008562  -1.927183  0.923668
H    -1.450515  -1.363248  1.786985
H    -1.871041  -2.485800  4.113190
H    2.022056  -3.900740  4.953006
H    -0.413391  -3.884872  5.662345
O    2.067727  0.258655  3.037199
H    0.026298  1.573221  0.105453
Cd    3.239932  -1.686516  2.672155
