21
Energy: -169054.449978 eV PBE+vdW (tier 2 basis)
N    -0.461597  0.242073  2.423675
C    0.848153  -0.146209  2.063470
C    0.857630  -0.899616  0.633100
O    0.474901  -2.093423  0.552245
H    -0.803543  1.115573  2.029887
H    -1.178204  -0.479870  2.452658
H    1.451480  0.751487  1.892006
C    1.576629  -1.020494  3.126768
C    0.758825  -2.036241  3.846570
N    -0.076920  -1.716430  4.913589
C    0.684935  -3.401754  3.724581
C    -0.627247  -2.822544  5.426483
N    -0.171593  -3.852997  4.706295
H    1.986321  -0.312402  3.862815
H    2.440408  -1.516397  2.667666
H    1.180249  -4.074729  3.036883
H    -1.307133  -2.874993  6.269549
H    -0.413942  -4.826673  4.880932
O    1.234832  -0.187359  -0.336924
H    -0.235585  -0.777900  5.275635
Cd    0.821400  -1.870104  -1.775883
