21
Energy: -169054.58584 eV PBE+vdW (tier 2 basis)
N    2.296019  -2.346591  0.886095
C    1.380324  -1.346151  0.487336
C    2.004927  0.130987  0.749782
O    1.926588  0.618169  1.906099
H    3.108036  -2.493827  0.290978
H    2.512569  -2.416315  1.878921
H    1.244952  -1.387351  -0.600335
C    0.029587  -1.435927  1.221268
C    -0.770210  -2.645896  0.845336
N    -2.159470  -2.656024  0.914462
C    -0.418657  -3.905007  0.423662
C    -2.639990  -3.854014  0.560078
N    -1.588346  -4.618349  0.257066
H    -0.558326  -0.534643  0.995653
H    0.206388  -1.419671  2.308911
H    0.554319  -4.340286  0.240600
H    -3.683748  -4.145032  0.524430
H    -1.651621  -5.586986  -0.050857
O    2.582000  0.668626  -0.230792
H    -2.747082  -1.876506  1.202575
Cd    3.193740  2.396794  1.129736
