21
Energy: -169054.44583 eV PBE+vdW (tier 2 basis)
N    -0.380468  -0.852167  -0.113176
C    -0.346616  -0.363389  1.191276
C    0.761935  0.876673  1.307927
O    0.509568  1.876549  0.598651
H    0.295251  -1.546840  -0.419639
H    -0.800365  -0.294588  -0.851347
H    -1.283689  0.162145  1.426660
C    -0.047983  -1.493086  2.203916
C    -0.285424  -1.187462  3.644575
N    0.646373  -0.590290  4.484621
C    -1.361009  -1.486792  4.444547
C    0.175813  -0.526071  5.734948
N    -1.047084  -1.066832  5.718939
H    0.978855  -1.859804  2.061414
H    -0.718421  -2.320254  1.934664
H    -2.299097  -1.976906  4.213732
H    0.687735  -0.119798  6.599743
H    -1.643967  -1.165851  6.538497
O    1.771004  0.727012  2.037777
H    1.554171  -0.244614  4.178404
Cd    2.505337  2.838582  1.122366
