27
Energy: -35157.2356769 eV PBE+vdW (tier 2 basis)
C    0.749076  -0.868132  3.212915
C    -0.016022  -0.085991  2.198306
O    0.503296  0.176649  1.064186
H    1.737571  -0.417857  3.368486
H    0.921264  -1.876573  2.807214
H    0.233028  -0.958466  4.174244
N    -1.254091  0.317622  2.503492
C    -2.268949  0.881498  1.605982
C    -2.032173  2.388808  1.329801
O    -0.866229  2.756537  0.944384
H    -1.576892  0.105271  3.445281
H    -2.149880  0.400915  0.620082
C    -3.667058  0.455887  2.149442
O    -4.602108  1.083169  1.263794
C    -3.940681  0.799702  3.615109
H    -3.712893  -0.638750  2.019464
H    -5.482268  0.687547  1.382076
H    -3.794645  1.863262  3.842839
H    -3.335882  0.205036  4.316365
H    -4.981498  0.543692  3.852051
N    -3.029954  3.234327  1.428001
C    -2.962574  4.665296  1.135871
H    -3.954558  2.803255  1.571680
H    -3.348905  4.861547  0.126794
H    -1.930306  5.014095  1.211441
H    -3.585813  5.198914  1.861205
Ca    0.863145  1.975738  0.013496
