27
Energy: -35156.556912 eV PBE+vdW (tier 2 basis)
C    -0.809158  -0.848406  0.034659
C    -0.853188  0.157876  1.145215
O    -0.553158  1.347360  0.971142
H    -1.114338  -1.858609  0.327159
H    0.215738  -0.882601  -0.359419
H    -1.448873  -0.495924  -0.784723
N    -1.263642  -0.310440  2.374618
C    -1.251229  0.352951  3.676586
C    -1.850292  1.759074  3.810908
O    -2.198533  2.087950  5.018160
H    -1.547580  -1.284841  2.403735
H    -1.904605  -0.267242  4.308677
C    0.168937  0.285296  4.326368
O    -0.010248  0.423146  5.823027
C    1.178516  1.296694  3.838039
H    0.523343  -0.743442  4.177402
H    0.760849  -0.014429  6.227518
H    0.852555  2.328361  4.029030
H    1.320000  1.192913  2.754404
H    2.155026  1.140365  4.313762
N    -1.955175  2.564283  2.796508
C    -2.533852  3.904005  2.824666
H    -1.453978  2.212730  1.921099
H    -3.217253  4.004939  1.973870
H    -1.736725  4.651222  2.716343
H    -3.077469  4.069779  3.757844
Ca    -1.514671  1.716991  6.917401
