27
Energy: -35157.5214512 eV PBE+vdW (tier 2 basis)
C    0.962337  -0.894459  0.462261
C    0.342735  -0.315403  1.687679
O    0.945578  0.596056  2.350093
H    0.366528  -1.696436  0.014996
H    1.966481  -1.271377  0.696809
H    1.090119  -0.089352  -0.276277
N    -0.855967  -0.750628  2.078547
C    -1.652776  -0.197503  3.181044
C    -1.081744  -0.663902  4.538743
O    -0.117287  0.004809  5.052562
H    -1.289356  -1.524562  1.573967
H    -1.544319  0.896665  3.167767
C    -3.145017  -0.524012  2.950553
O    -3.186351  -1.963173  2.857607
C    -3.733691  0.163167  1.727669
H    -3.687744  -0.189193  3.852364
H    -4.077110  -2.250277  2.592529
H    -3.220612  -0.118601  0.799089
H    -3.694246  1.255333  1.834879
H    -4.792673  -0.107592  1.623372
N    -1.595190  -1.730668  5.106673
C    -1.183311  -2.305740  6.385922
H    -2.333614  -2.200610  4.562657
H    -0.675101  -3.263487  6.215445
H    -2.074138  -2.483567  6.998911
H    -0.512613  -1.616209  6.903113
Ca    1.449082  1.228720  4.303025
