27
Energy: -35156.2524243 eV PBE+vdW (tier 2 basis)
C    -0.277519  0.329137  -0.030026
C    -0.278036  0.539535  1.442065
O    0.826347  0.549965  2.095164
H    0.140502  -0.666637  -0.241524
H    0.386908  1.060651  -0.508900
H    -1.275743  0.397673  -0.474012
N    -1.425205  0.703837  2.095926
C    -1.585068  0.684645  3.558694
C    -2.932496  -0.025612  3.937458
O    -2.881017  -0.958875  4.718074
H    -2.281541  0.609346  1.550090
H    -0.842127  -0.013495  3.972708
C    -1.436356  2.050913  4.252186
O    0.042957  2.369891  4.355113
C    -2.017636  2.101708  5.651187
H    -1.851517  2.843512  3.612572
H    0.081415  3.168628  4.915325
H    -1.798568  3.067919  6.127767
H    -1.641712  1.289487  6.285621
H    -3.111081  2.018548  5.611147
N    -4.051769  0.434665  3.322552
C    -5.364643  -0.167045  3.588188
H    -4.046944  1.346656  2.874444
H    -6.033705  0.060550  2.753180
H    -5.797220  0.216863  4.521365
H    -5.244739  -1.250691  3.678501
Ca    1.901511  1.281226  3.691137
