27
Energy: -35156.1339944 eV PBE+vdW (tier 2 basis)
C    0.030136  0.663540  0.013601
C    -0.067986  0.630726  1.496923
O    0.947556  0.932516  2.220949
H    -0.918380  0.438131  -0.484185
H    0.784371  -0.071798  -0.304734
H    0.389253  1.648863  -0.312228
N    -1.206198  0.275995  2.086931
C    -1.362063  -0.007621  3.521692
C    -2.326861  -1.227532  3.734888
O    -1.875314  -2.171725  4.361299
H    -1.967143  -0.017478  1.476569
H    -0.416883  -0.446053  3.873600
C    -1.682755  1.213542  4.408745
O    -0.369105  1.885541  4.763809
C    -2.385688  0.872146  5.706990
H    -2.238324  1.966589  3.833744
H    -0.589388  2.469891  5.514281
H    -3.402706  0.513498  5.505118
H    -2.496956  1.766879  6.336693
H    -1.858451  0.092278  6.270579
N    -3.556588  -1.207154  3.155102
C    -4.376315  -0.074022  2.730880
H    -4.056618  -2.084806  3.300369
H    -5.108524  0.202418  3.503031
H    -4.923173  -0.332556  1.816437
H    -3.764599  0.811227  2.520265
Ca    1.730703  1.654966  3.982655
