27
Energy: -35157.1884017 eV PBE+vdW (tier 2 basis)
C    -0.140061  -1.688723  0.483016
C    -0.249772  -0.758038  1.642313
O    0.778043  -0.121968  2.057321
H    0.192154  -1.115237  -0.394597
H    -1.081409  -2.194120  0.246023
H    0.636820  -2.438399  0.683660
N    -1.435291  -0.596845  2.229494
C    -1.780148  0.382362  3.262719
C    -1.239576  -0.058324  4.646050
O    -0.005902  0.226329  4.871305
H    -2.254056  -1.104604  1.878680
H    -1.209531  1.301366  3.064096
C    -3.283722  0.754426  3.090241
O    -3.945220  -0.459586  2.711125
C    -3.463513  1.854986  2.051600
H    -3.662142  1.107039  4.065194
H    -4.826093  -0.253476  2.355732
H    -4.531703  2.067334  1.910641
H    -3.042127  1.569339  1.078282
H    -2.995839  2.791604  2.383118
N    -1.920377  -0.674676  5.590692
C    -3.297447  -1.175095  5.653384
H    -1.365928  -0.826219  6.436552
H    -3.275001  -2.156403  6.140001
H    -3.725077  -1.276251  4.653742
H    -3.909029  -0.497175  6.262960
Ca    1.793946  0.524355  3.786657
