27
Energy: -35157.1040248 eV PBE+vdW (tier 2 basis)
C    0.760936  0.118408  0.296334
C    0.461509  0.054794  1.755269
O    1.414014  0.056993  2.600497
H    -0.130690  0.231857  -0.328405
H    1.274152  -0.813277  0.013705
H    1.458251  0.941658  0.096380
N    -0.817920  -0.007546  2.140724
C    -1.383990  -0.330293  3.466749
C    -1.171657  0.780953  4.498001
O    -0.006260  1.015008  4.965192
H    -1.489419  -0.061593  1.379500
H    -2.457868  -0.434927  3.277142
C    -0.917996  -1.714177  4.012077
O    -0.979752  -2.570567  2.892098
C    -1.782464  -2.160476  5.185121
H    0.137944  -1.632600  4.357905
H    -1.109973  -3.488623  3.182698
H    -1.441092  -3.136049  5.555631
H    -2.833574  -2.260552  4.882315
H    -1.722636  -1.462828  6.032395
N    -2.203965  1.473561  4.945769
C    -3.622225  1.372132  4.572886
H    -1.969484  2.158513  5.666006
H    -3.750095  1.422912  3.486140
H    -4.144266  2.225050  5.015195
H    -4.067723  0.450488  4.966861
Ca    2.033243  0.592182  4.528815
