27
Energy: -35156.8728772 eV PBE+vdW (tier 2 basis)
C    -0.535068  -0.306862  0.227255
C    -0.339650  -0.077463  1.686342
O    0.805909  0.240413  2.145255
H    0.167938  -1.074978  -0.121833
H    -0.284246  0.619814  -0.309359
H    -1.556300  -0.604064  -0.031816
N    -1.387584  -0.199286  2.512213
C    -1.365826  0.138143  3.936688
C    -0.602893  -0.946891  4.746925
O    0.645752  -0.707077  4.937659
H    -2.287130  -0.448965  2.105688
H    -0.697382  1.003124  4.042618
C    -2.755161  0.634618  4.458114
O    -2.696333  0.356063  5.854120
C    -4.005291  0.096485  3.764341
H    -2.740006  1.725481  4.292230
H    -3.322571  0.927270  6.328540
H    -4.887509  0.483954  4.290939
H    -4.087366  -0.995535  3.760057
H    -4.093803  0.475588  2.734887
N    -1.092490  -2.088691  5.182008
C    -2.444632  -2.648502  5.113004
H    -0.404838  -2.648702  5.687721
H    -3.127486  -2.068803  5.742240
H    -2.394424  -3.676798  5.480603
H    -2.801438  -2.672966  4.077846
Ca    2.188826  0.133629  3.755715
