27
Energy: -35157.1883012 eV PBE+vdW (tier 2 basis)
C    -0.342910  -1.641434  0.190892
C    -0.659769  -1.045698  1.522955
O    -0.389485  -1.690206  2.581408
H    -0.618598  -1.004310  -0.655417
H    -0.865123  -2.604526  0.102702
H    0.732840  -1.859830  0.143139
N    -1.232644  0.168291  1.546981
C    -1.718176  1.018728  2.652412
C    -0.645770  1.427088  3.675816
O    -0.045675  0.562060  4.392698
H    -1.391200  0.571014  0.626946
H    -2.035563  1.939104  2.147533
C    -3.034155  0.532975  3.344946
O    -3.390288  1.660824  4.129985
C    -2.987555  -0.739312  4.197998
H    -3.751003  0.368104  2.521248
H    -4.343184  1.657081  4.319909
H    -3.992895  -0.957967  4.581741
H    -2.372189  -0.570490  5.102476
H    -2.680621  -1.623491  3.620256
N    -0.412186  2.718356  3.810468
C    0.500992  3.323206  4.780227
H    -0.968538  3.356903  3.246379
H    1.101863  4.087456  4.275188
H    1.154648  2.553495  5.195352
H    -0.076017  3.794321  5.586452
Ca    -0.016404  -1.542004  4.654266
