23
Energy: -603637.457008 eV PBE+vdW (tier 2 basis)
C    0.480721  -1.022478  0.075963
C    0.100462  -0.559403  1.438513
O    0.949347  0.100881  2.132866
H    0.727165  -0.142100  -0.536069
H    -0.307986  -1.595900  -0.421934
H    1.394234  -1.629520  0.137634
N    -1.126142  -0.821519  1.902884
C    -1.700887  -0.297373  3.151568
C    -1.118690  -1.055179  4.367997
O    -0.104899  -0.530672  4.969211
H    -1.757880  -1.321029  1.278892
H    -1.312232  0.725082  3.275083
C    -3.222351  -0.195754  3.054321
H    -3.649221  0.093824  4.022163
H    -3.698513  -1.128998  2.735023
H    -3.482861  0.585952  2.330373
N    -1.589090  -2.191783  4.836566
C    -2.700436  -3.035542  4.376905
H    -1.089098  -2.528926  5.662488
H    -3.659098  -2.656073  4.750576
H    -2.539033  -4.039349  4.780620
H    -2.717842  -3.104302  3.285529
Pb    1.606330  0.685163  4.189829
