23
Energy: -603637.669055 eV PBE+vdW (tier 2 basis)
C    -1.489861  1.440471  -0.026937
C    -1.034894  0.142956  0.543770
O    0.063592  -0.369992  0.125690
H    -2.446797  1.782059  0.380957
H    -1.563100  1.357150  -1.119686
H    -0.719381  2.198414  0.180495
N    -1.762350  -0.442924  1.497475
C    -1.383144  -1.608663  2.320196
C    -1.669896  -2.910825  1.544803
O    -0.883022  -3.268824  0.593822
H    -2.614119  0.041657  1.777426
H    -0.288564  -1.575965  2.443404
C    -2.034743  -1.497253  3.696042
H    -1.747838  -2.343036  4.332474
H    -3.132950  -1.447080  3.642998
H    -1.690527  -0.583703  4.195974
N    -2.709156  -3.646396  1.867866
C    -3.119306  -4.900723  1.229188
H    -3.276772  -3.325266  2.651197
H    -3.183623  -5.684275  1.993499
H    -2.389077  -5.180707  0.467948
H    -4.106783  -4.767119  0.770274
Pb    0.900311  -2.357956  -0.415874
