23
Energy: -603636.226003 eV PBE+vdW (tier 2 basis)
C    0.221126  0.256956  0.425331
C    -0.400192  -0.679795  1.412391
O    0.120589  -1.939844  1.380734
H    1.315053  0.213984  0.501352
H    -0.099511  1.292575  0.574144
H    -0.051875  -0.043596  -0.596476
N    -1.333159  -0.468782  2.258321
C    -2.006832  0.816979  2.397396
C    -2.641918  0.745717  3.790869
O    -2.607770  -0.408107  4.383202
H    -2.075432  -0.976193  3.725192
H    -1.297659  1.662238  2.389654
C    -3.093326  1.026150  1.322607
H    -3.812754  0.198659  1.331633
H    -2.632316  1.080848  0.330113
H    -3.637290  1.964674  1.485749
N    -3.212485  1.770116  4.364016
C    -3.870823  1.768390  5.677974
H    -3.212059  2.648642  3.848510
H    -4.947699  1.926165  5.544166
H    -3.456135  2.582408  6.282550
H    -3.696000  0.811022  6.173049
Pb    0.942464  -3.805208  1.160523
