23
Energy: -603636.913499 eV PBE+vdW (tier 2 basis)
C    0.003756  0.536476  -0.392779
C    0.203640  0.319685  1.061106
O    1.393779  0.223134  1.536844
H    0.620932  -0.207968  -0.920575
H    0.396372  1.517995  -0.697968
H    -1.036363  0.426669  -0.711513
N    -0.832983  0.209773  1.914766
C    -1.979389  1.121337  1.939112
C    -1.436952  2.505228  2.371844
O    -0.261981  2.614862  2.896608
H    -0.592210  -0.180404  2.828120
H    -2.389444  1.205686  0.922440
C    -3.051996  0.589632  2.896254
H    -3.926862  1.247084  2.921838
H    -2.666541  0.506203  3.921747
H    -3.383386  -0.399567  2.559148
N    -2.165438  3.591841  2.228354
C    -3.515532  3.740286  1.672963
H    -1.729186  4.446964  2.580245
H    -4.251744  3.806410  2.484501
H    -3.767784  2.903945  1.015578
H    -3.546484  4.667201  1.090542
Pb    1.824797  1.754527  3.152823
