22
Energy: -605081.067299 eV PBE+vdW (tier 2 basis)
N    0.23370  0.69647  0.43545
C    0.05013  0.25416  1.80671
C    1.42698  -0.15394  2.32958
O    2.17422  0.68722  2.93192
H    0.46226  1.68131  0.31136
H    0.79045  0.10623  -0.18023
H    1.31247  -1.95077  1.66739
H    -0.24906  1.12469  2.40390
C    -1.07653  -0.81024  1.97595
C    -1.19841  -1.90349  0.95735
N    -1.65988  -1.69371  -0.34243
C    -1.10488  -3.27083  1.09257
C    -1.84310  -2.86326  -0.96604
N    -1.50134  -3.82685  -0.10586
H    -2.01539  -0.23515  1.96950
H    -1.02151  -1.26395  2.97618
H    -1.87390  -0.78632  -0.75548
H    -0.85846  -3.88493  1.95205
H    -2.20459  -3.00380  -1.98085
H    -1.56277  -4.82626  -0.30680
O    1.94294  -1.33225  2.10298
Pb    3.99467  1.27368  4.06078
