22
Energy: -605081.731425 eV PBE+vdW (tier 2 basis)
N    0.10680  0.93434  1.28510
C    0.15015  -0.03550  2.42330
C    1.58698  -0.59725  2.55543
O    2.48935  -0.27987  1.74574
H    -0.30424  1.82347  1.58878
H    -0.51367  0.58697  0.54460
H    1.24331  -1.60928  4.18401
H    -0.01310  0.53219  3.35511
C    -0.89826  -1.17951  2.31390
C    -2.33200  -0.80199  2.59129
N    -3.38521  -1.57825  2.11155
C    -2.91582  0.15715  3.38247
C    -4.55172  -1.12208  2.58473
N    -4.27707  -0.06616  3.35241
H    -0.61974  -1.98750  3.01092
H    -0.81898  -1.63714  1.31377
H    -3.31320  -2.40061  1.51214
H    -2.49616  0.95752  3.98031
H    -5.53568  -1.53466  2.37793
H    -4.98089  0.48341  3.84904
O    1.92936  -1.39083  3.51838
Pb    2.44278  1.35558  0.19209
