22
Energy: -605081.807173 eV PBE+vdW (tier 2 basis)
N    0.17925  -0.67930  -0.16359
C    0.15563  -0.31734  1.28650
C    1.54721  0.20319  1.68566
O    2.41360  0.49266  0.82886
H    -0.72069  -0.44968  -0.60129
H    0.28090  -1.69729  -0.27425
H    1.13949  0.12824  3.55777
H    -0.50920  0.55739  1.39059
C    -0.39034  -1.49650  2.16925
C    -0.68175  -1.23955  3.62467
N    -1.86213  -0.66851  4.10801
C    0.00407  -1.65686  4.74674
C    -1.89505  -0.73592  5.44451
N    -0.76438  -1.32587  5.84098
H    0.31642  -2.33816  2.11981
H    -1.31741  -1.84762  1.69051
H    -2.63674  -0.30049  3.55621
H    0.93710  -2.20301  4.84804
H    -2.69549  -0.37659  6.08714
H    -0.52680  -1.52246  6.81642
O    1.84898  0.40543  2.92984
Pb    2.17632  0.37426  -1.43039
