22
Energy: -605082.166400 eV PBE+vdW (tier 2 basis)
N    0.87872  1.36463  1.27410
C    0.10131  0.33203  2.03309
C    0.91019  -0.96651  2.03124
O    2.13246  -1.00285  1.75231
H    0.70655  2.29428  1.67602
H    0.52972  1.42483  0.30719
H    0.82368  -2.82895  2.43086
H    0.09122  0.64799  3.09057
C    -1.37907  0.21425  1.53112
C    -2.38512  -0.38859  2.47396
N    -3.09123  -1.55698  2.20046
C    -2.91173  0.09027  3.64993
C    -4.00405  -1.78210  3.15351
N    -3.89449  -0.79075  4.04180
H    -1.40011  -0.32268  0.57158
H    -1.70986  1.24071  1.31055
H    -2.99162  -2.14867  1.37718
H    -2.69409  0.98574  4.22072
H    -4.70595  -2.61025  3.19144
H    -4.47744  -0.69732  4.87544
O    0.24863  -2.02739  2.38240
Pb    3.37431  0.83529  1.11453
