22
Energy: -605081.716463 eV PBE+vdW (tier 2 basis)
N    0.90784  -0.44335  0.21744
C    0.16703  -0.27848  1.50444
C    1.16983  0.16105  2.60016
O    2.36064  0.43416  2.31750
H    1.03378  -1.44140  0.00811
H    0.35443  -0.06979  -0.56098
H    -0.09941  0.12079  4.07847
H    -0.50531  0.58820  1.38366
C    -0.66531  -1.53684  1.92679
C    -1.81567  -1.94656  1.05069
N    -3.07434  -1.34186  1.05027
C    -1.94040  -3.04634  0.23608
C    -3.91994  -2.03657  0.27771
N    -3.23819  -3.06859  -0.22460
H    -1.05450  -1.38238  2.94613
H    0.01264  -2.39954  2.01334
H    -3.37001  -0.53010  1.59027
H    -1.23457  -3.83052  -0.01446
H    -4.96706  -1.80546  0.10035
H    -3.63982  -3.78039  -0.83835
O    0.83066  0.31285  3.83963
Pb    3.30714  0.58097  0.27565
