22
Energy: -605081.984771 eV PBE+vdW (tier 2 basis)
N    -0.10763  -0.36760  -0.12335
C    -0.00414  0.01105  1.31927
C    1.46942  0.26002  1.63684
O    2.29434  0.59110  0.75145
H    -1.04466  -0.13625  -0.47598
H    -0.01492  -1.38718  -0.23071
H    2.71848  0.47811  3.06487
H    -0.44025  1.02529  1.40275
C    -0.83502  -0.84325  2.32660
C    -0.51581  -2.29017  2.56990
N    0.27583  -2.74399  3.62567
C    -1.05062  -3.42516  2.00576
C    0.22525  -4.07943  3.70502
N    -0.56939  -4.50184  2.71806
H    -1.88054  -0.78142  1.99088
H    -0.82168  -0.30126  3.28421
H    0.76398  -2.16414  4.30627
H    -1.77150  -3.55153  1.20559
H    0.72757  -4.70171  4.44070
H    -0.80824  -5.48110  2.55059
O    1.79130  0.18284  2.89304
Pb    1.74425  0.76361  -1.48944
