22
Energy: -605082.375927 eV PBE+vdW (tier 2 basis)
N    -0.36058  -0.97018  -0.37633
C    -0.19726  -0.28920  0.97376
C    1.30565  -0.03923  1.21277
O    1.74229  0.16158  2.38595
H    -1.28659  -0.77940  -0.79170
H    -0.24866  -1.99464  -0.31370
H    0.36282  -0.62022  -1.03186
H    -0.60168  0.72838  0.82938
C    -1.04784  -0.92429  2.09892
C    -0.84005  -2.35469  2.50610
N    -0.00423  -2.75585  3.54760
C    -1.52033  -3.48973  2.12909
C    -0.16714  -4.06150  3.79772
N    -1.07750  -4.51686  2.93329
H    -2.10388  -0.80879  1.81179
H    -0.92864  -0.26969  2.97518
H    0.58912  -2.14637  4.10785
H    -2.31484  -3.63864  1.40559
H    0.33747  -4.63996  4.56653
H    -1.41494  -5.48121  2.90558
O    2.05634  0.07692  0.18442
Pb    3.83926  0.97797  1.49743
