22
Energy: -605081.793974 eV PBE+vdW (tier 2 basis)
N    -0.30942  0.76941  0.25872
C    -0.00212  0.13181  1.57569
C    1.50302  0.29338  1.86230
O    2.22254  1.06145  1.18424
H    -0.37916  0.05318  -0.47657
H    -1.23528  1.21299  0.28950
H    1.44459  -0.91922  3.34588
H    -0.50640  0.74025  2.34625
C    -0.52707  -1.33568  1.64593
C    -0.55047  -1.99898  3.00297
N    -0.47266  -3.38564  3.13277
C    -0.79970  -1.52869  4.27487
C    -0.66904  -3.74560  4.40676
N    -0.85970  -2.62650  5.10846
H    0.05762  -1.95938  0.95114
H    -1.56011  -1.32401  1.26120
H    -0.31854  -4.05886  2.38102
H    -0.98090  -0.52808  4.65231
H    -0.66428  -4.76096  4.79642
H    -1.03653  -2.59988  6.11529
O    2.06380  -0.33347  2.84845
Pb    1.53906  2.40472  -0.52172
