21
Energy: -33479.2019685 eV PBE+vdW (tier 2 basis)
N    0.422017  -0.701447  0.025745
C    -0.182541  -0.430968  1.297488
C    0.822395  -0.606944  2.432838
O    0.574453  -0.308823  3.632442
H    -0.239496  -0.624820  -0.744845
H    1.233291  -0.121792  -0.183503
H    -0.569131  0.602899  1.453185
C    -1.414733  -1.412520  1.453286
C    -2.163458  -1.200581  2.714600
N    -3.000499  -0.128756  2.947092
C    -1.995325  -1.784222  3.957494
C    -3.265500  -0.049185  4.277990
N    -2.650826  -1.037577  4.936098
H    -1.052041  -2.445399  1.385159
H    -2.050963  -1.237965  0.574193
H    -1.502108  -2.728352  4.186526
H    -3.913425  0.702745  4.719904
H    -3.392299  0.486519  2.235408
O    1.986348  -1.066982  2.066295
H    2.615703  -1.121312  2.817555
Ca    -0.505861  -0.325517  5.526051
