21
Energy: -33479.0949508 eV PBE+vdW (tier 2 basis)
N    -0.707896  -2.556729  3.165394
C    0.064111  -1.387862  2.811851
C    1.600883  -1.507417  2.894342
O    2.142723  -2.660899  3.021758
H    -2.408683  0.735622  1.507177
H    -0.462309  -2.928898  4.083634
H    -0.115734  -1.168755  1.743730
C    -0.430629  -0.169536  3.634320
C    -1.898360  0.015823  3.490890
N    -2.721607  0.286724  4.474794
C    -2.751091  0.006271  2.263581
C    -4.057458  0.459149  3.956083
N    -4.099963  0.306669  2.693805
H    0.067769  0.751043  3.286437
H    -0.169023  -0.289469  4.695936
H    -2.726116  -0.979451  1.765369
H    -4.881630  0.690570  4.628504
H    -2.464914  0.365516  5.461353
O    2.339342  -0.460203  2.784085
H    -0.599201  -3.315802  2.493845
Ca    4.107785  -1.741369  2.819111
