21
Energy: -33479.008335 eV PBE+vdW (tier 2 basis)
N    -0.413355  -0.782840  2.862411
C    0.606070  -1.391066  2.038010
C    1.949024  -0.646456  1.978517
O    2.055537  0.541238  2.449190
H    -0.329202  -1.017482  3.849639
H    -0.445240  0.233641  2.776193
H    0.851283  -2.382611  2.450498
C    0.067000  -1.589312  0.590516
C    -1.295619  -2.314039  0.681555
N    -2.194126  -2.137143  -0.446509
C    -1.329315  -3.794817  0.778407
C    -2.641845  -3.313280  -0.830708
N    -2.125911  -4.352575  -0.097973
H    0.780722  -2.138202  -0.034885
H    -0.104168  -0.604302  0.131057
H    -0.787848  -4.390396  1.514011
H    -3.355835  -3.449043  -1.642336
H    -2.482357  -1.240973  -0.837426
O    2.975667  -1.228884  1.471210
H    -1.753038  -1.871355  1.613641
Ca    4.199556  0.480897  2.030982
