21
Energy: -33478.6529793 eV PBE+vdW (tier 2 basis)
N    -0.275752  1.393461  0.689467
C    -0.066440  0.081879  1.230971
C    1.288722  0.036357  1.936602
O    2.195308  0.892988  1.650068
H    0.410230  1.687011  -0.003361
H    -1.221685  1.563591  0.356168
H    -0.819441  -0.091378  2.017178
C    -0.174372  -1.070502  0.169093
C    -0.307826  -2.525887  0.721931
N    -1.617042  -2.834022  1.295862
C    -0.297014  -3.541876  -0.371737
C    -2.174237  -3.803085  0.601560
N    -1.396127  -4.247336  -0.438084
H    0.700865  -1.041761  -0.495992
H    -1.052876  -0.856637  -0.454257
H    0.518382  -3.678566  -1.083502
H    -3.156516  -4.216732  0.830345
H    -2.023185  -2.399696  2.122952
O    1.522276  -0.856920  2.837437
H    0.479829  -2.716539  1.473429
Ca    3.376902  0.226650  3.331870
