21
Energy: -33479.1851551 eV PBE+vdW (tier 2 basis)
N    -0.493683  -1.309225  -0.074797
C    0.153345  -0.448420  0.924530
C    1.585349  -0.118159  0.506949
O    1.898858  -0.137744  -0.737628
H    -0.146957  -1.082637  -1.009881
H    -1.503664  -1.151910  -0.087610
H    -0.309710  0.559055  0.972889
C    0.048938  -1.022387  2.360937
C    0.340044  -2.470864  2.518676
N    0.209950  -3.353300  1.560197
C    0.751590  -3.239023  3.729905
C    0.518858  -4.658182  2.080218
N    0.835090  -4.624218  3.315524
H    -0.985274  -0.874330  2.721893
H    0.675906  -0.440497  3.049504
H    0.028786  -3.124802  4.559831
H    0.464908  -5.535475  1.438742
H    -0.099791  -3.010456  0.614211
O    2.446289  0.271474  1.374360
H    1.713018  -2.890706  4.148440
Ca    3.808150  0.811805  -0.254890
