21
Energy: -33478.8778305 eV PBE+vdW (tier 2 basis)
N    0.901998  -0.699132  -0.976011
C    -0.188149  -0.372483  -0.005727
C    0.406261  0.232216  1.294474
O    1.550052  0.846743  1.136287
H    1.231592  -1.655579  -0.795761
H    0.522714  -0.736737  -1.927699
H    -0.784053  0.431260  -0.467659
C    -1.101818  -1.567978  0.354281
C    -2.047565  -1.300172  1.483388
N    -3.069884  -0.468569  1.465686
C    -2.200682  -2.079018  2.750643
C    -3.820087  -0.614483  2.686929
N    -3.346863  -1.526705  3.436761
H    -0.477518  -2.425120  0.646098
H    -1.686048  -1.880372  -0.526019
H    -1.297599  -2.033378  3.380923
H    -4.688336  0.014949  2.873333
H    -3.301006  0.193676  0.725117
O    -0.225667  0.122460  2.331893
H    -2.365691  -3.153766  2.539406
Ca    2.804349  0.868188  -0.463341
