21
Energy: -33478.6251104 eV PBE+vdW (tier 2 basis)
N    0.404583  -0.139873  0.317013
C    -0.020496  0.043242  1.738167
C    1.211698  0.122151  2.606246
O    2.300170  -0.360189  2.201910
H    -0.314208  -0.780326  -0.097155
H    0.274125  0.746937  -0.183014
H    -0.629119  0.952815  1.844835
C    -0.899340  -1.203466  2.210064
C    -1.886148  -1.591248  1.177467
N    -3.123244  -1.005132  0.978811
C    -1.762486  -2.501221  0.129622
C    -3.678781  -1.591449  -0.126883
N    -2.872135  -2.487891  -0.664776
H    -1.361125  -0.949201  3.173990
H    -0.230486  -2.056644  2.396722
H    -0.960156  -3.219210  -0.033425
H    -4.671253  -1.333803  -0.485164
H    -3.594838  -0.349010  1.594937
O    1.180951  0.600576  3.818355
H    0.318113  0.980337  4.081736
Ca    2.694153  -0.928524  0.188762
