21
Energy: -33478.8589596 eV PBE+vdW (tier 2 basis)
N    1.194922  0.161282  0.872368
C    0.559356  -0.367814  2.028250
C    1.385976  -1.517051  2.611095
O    2.369413  -2.002391  1.961790
H    1.252670  -0.454768  0.065295
H    0.894690  1.094899  0.607130
H    0.552972  0.415141  2.804100
C    -0.960983  -0.837384  1.827360
C    -1.865834  -0.673150  2.982129
N    -1.584942  -0.976546  4.231528
C    -3.244337  -0.100365  3.017598
C    -2.708350  -0.640272  5.064949
N    -3.671388  -0.138933  4.398359
H    -0.984120  -1.890878  1.502139
H    -1.358779  -0.258171  0.984027
H    -3.946094  -0.659448  2.369894
H    -2.672314  -0.818484  6.137986
H    -0.687724  -1.390356  4.520701
O    1.106770  -2.001510  3.781945
H    -3.273089  0.934384  2.625956
Ca    2.965184  -3.225183  3.631401
