21
Energy: -33478.5926086 eV PBE+vdW (tier 2 basis)
N    0.227641  -0.339294  -0.166610
C    0.007946  -0.268867  1.330566
C    1.264821  0.154698  2.103394
O    1.303644  0.153637  3.304210
H    1.057380  -0.901422  -0.395055
H    0.372154  0.590612  -0.576930
H    -0.745891  0.517056  1.486113
C    -0.536388  -1.614655  1.837599
C    -1.833587  -1.993946  1.189087
N    -2.041845  -1.744242  -0.159765
C    -2.944909  -2.621673  1.696758
C    -3.243424  -2.213429  -0.441486
N    -3.864051  -2.775591  0.652723
H    -0.646122  -1.532419  2.925573
H    0.219706  -2.400095  1.665883
H    -3.143562  -2.960902  2.710109
H    -3.699618  -2.161692  -1.426891
H    -0.656538  -0.815395  -0.560751
O    2.259748  0.518576  1.262541
H    3.032511  0.801439  1.795273
Ca    -5.735616  -3.782396  0.849658
