21
Energy: -33478.6677683 eV PBE+vdW (tier 2 basis)
N    -0.333920  1.151759  1.741360
C    -0.081225  -0.268363  1.817651
C    1.421150  -0.514572  1.905577
O    1.932865  -1.656375  1.597767
H    -1.264344  1.405339  2.068891
H    0.356033  1.700715  2.251614
H    -0.473498  -0.754871  2.743856
C    -0.746922  -0.952296  0.585643
C    -1.384338  -2.343191  0.855475
N    -2.194333  -2.811798  -0.269405
C    -0.474967  -3.521104  0.980754
C    -1.764501  -3.989576  -0.652767
N    -0.704068  -4.452940  0.095422
H    -0.048887  -1.021432  -0.258368
H    -1.554997  -0.278506  0.273172
H    0.305906  -3.618505  1.732356
H    -2.203572  -4.551681  -1.477036
H    -2.976860  -2.303414  -0.682481
O    2.190673  0.423585  2.320556
H    -2.027429  -2.277641  1.756372
Ca    3.922234  -0.842134  2.088590
