21
Energy: -33480.0250959 eV PBE+vdW (tier 2 basis)
N    -0.492817  1.229985  0.588291
C    -0.063201  0.235443  1.654707
C    1.041625  -0.623493  1.005545
O    0.950057  -0.800201  -0.260832
H    -1.455106  1.571684  0.715159
H    -0.389903  0.749358  -0.329003
H    0.126702  2.053778  0.571198
H    0.316701  0.806197  2.508760
C    -1.255528  -0.692781  2.114496
C    -1.272606  -1.993593  1.375438
N    -1.836400  -2.222632  0.132464
C    -0.404066  -3.050368  1.559006
C    -1.261967  -3.327684  -0.408638
N    -0.349678  -3.841354  0.421032
H    -2.206777  -0.143091  2.054361
H    -1.097355  -0.897972  3.180604
H    -2.608731  -1.710072  -0.286756
H    0.175118  -3.277911  2.451333
H    -1.538152  -3.731346  -1.378063
O    1.866419  -1.239108  1.726694
Ca    1.888178  -2.879762  0.113284
