21
Energy: -33478.2434326 eV PBE+vdW (tier 2 basis)
N    0.617477  1.565681  1.023757
C    0.005570  0.244439  1.455346
C    0.878508  -0.784490  0.711645
O    1.498131  -0.452751  -0.281502
H    1.106398  1.331124  0.119889
H    1.322855  1.911403  1.686844
H    0.111671  0.139874  2.541121
C    -1.484453  0.225214  1.030231
C    -2.213144  -1.059816  1.278732
N    -2.086052  -2.120264  0.406042
C    -3.124420  -1.368260  2.273872
C    -2.903701  -3.033329  0.881520
N    -3.585051  -2.644982  2.034540
H    -1.539871  0.444319  -0.048181
H    -1.994355  1.038328  1.567761
H    -3.491302  -0.776949  3.106334
H    -2.998211  -4.029588  0.423688
H    -0.080257  2.305181  0.876559
O    0.866327  -1.979110  1.282783
H    1.408220  -2.592251  0.742064
Ca    -4.994340  -4.199775  2.152956
