21
Energy: -33479.3861415 eV PBE+vdW (tier 2 basis)
N    0.087570  0.479204  2.453886
C    0.335446  -0.223049  3.760574
C    1.732000  -0.807227  3.782378
O    2.384442  -0.960055  2.684881
H    0.301172  1.483469  2.484477
H    -0.948302  0.348276  2.238483
H    0.230200  0.508252  4.570739
C    -0.755637  -1.355807  3.934327
C    -2.104521  -0.851991  3.575902
N    -2.959766  -0.175160  4.425161
C    -2.727518  -0.788126  2.329634
C    -4.040724  0.222865  3.682380
N    -3.919702  -0.121527  2.415745
H    -0.684182  -1.719110  4.967332
H    -0.500927  -2.195658  3.271962
H    -2.412860  -1.265985  1.402772
H    -4.883422  0.750253  4.119960
H    -2.868212  -0.079924  5.432640
O    2.223449  -1.202966  4.891536
H    0.655693  0.052519  1.704508
Ca    4.027800  -1.890254  3.863722
