21
Energy: -33478.7261563 eV PBE+vdW (tier 2 basis)
N    -0.182743  -0.024782  -0.011551
C    0.023526  -0.504111  1.403109
C    1.542964  -0.667151  1.567724
O    2.278255  -0.711052  0.604876
H    0.585257  -0.425315  -0.583611
H    -1.157454  -0.341896  -0.326159
H    -0.364083  0.260642  2.087381
C    -0.700152  -1.851430  1.622260
C    -2.160387  -1.812118  1.284678
N    -2.590188  -1.190353  0.121762
C    -3.246861  -2.365465  1.918440
C    -3.895751  -1.372123  0.069228
N    -4.377576  -2.095120  1.140997
H    -0.552503  -2.144527  2.668730
H    -0.202661  -2.622009  1.009195
H    -3.296071  -2.922655  2.849824
H    -4.528493  -0.991558  -0.729344
H    -0.103867  0.996054  -0.081926
O    1.886439  -0.783187  2.849388
H    2.856212  -0.914824  2.912165
Ca    -6.352863  -2.835022  1.466834
