21
Energy: -33478.633356 eV PBE+vdW (tier 2 basis)
N    -0.260513  0.597891  0.112344
C    -0.050680  0.189870  1.557877
C    0.925247  -0.998268  1.630072
O    0.892935  -1.829852  2.497859
H    0.619779  0.519277  -0.414645
H    -0.611972  1.559335  0.035019
H    0.442475  1.028247  2.072220
C    -1.398264  -0.117317  2.223076
C    -2.158586  -1.201775  1.521057
N    -2.162542  -1.265301  0.134936
C    -2.928601  -2.227262  2.009838
C    -2.917254  -2.300817  -0.186638
N    -3.430982  -2.943490  0.916794
H    -1.995209  0.808394  2.259150
H    -1.198540  -0.400020  3.263237
H    -3.138587  -2.499557  3.041361
H    -3.115566  -2.615413  -1.207734
H    -1.002415  -0.088656  -0.273253
O    1.827675  -0.930093  0.623010
H    2.485818  -1.646755  0.733518
Ca    -4.739219  -4.604438  1.183902
