21
Energy: -33478.3969626 eV PBE+vdW (tier 2 basis)
N    -0.492561  0.832928  0.758842
C    0.177745  0.143591  1.830421
C    1.727992  0.140583  1.803473
O    2.436437  -0.497123  2.585073
H    -0.375901  1.843477  0.794186
H    -0.227927  0.506551  -0.169972
H    -0.075724  0.667640  2.768350
C    -0.387727  -1.311021  1.921717
C    -0.294655  -1.983657  3.250652
N    0.869662  -2.001618  3.996212
C    -1.209277  -2.699282  3.984315
C    0.675930  -2.688082  5.118245
N    -0.599320  -3.150754  5.163562
H    0.097990  -1.944271  1.161628
H    -1.444755  -1.238919  1.639613
H    -2.246157  -2.911748  3.741614
H    1.437486  -2.839497  5.876425
H    1.713305  -1.459285  3.622506
O    2.232981  0.923748  0.862563
H    3.212228  0.901426  0.917060
Ca    -1.626361  -4.416925  6.607019
