21
Energy: -33478.4261593 eV PBE+vdW (tier 2 basis)
N    0.278767  -0.485810  0.058828
C    -0.019437  -0.053810  1.431735
C    1.291852  0.438293  2.062169
O    2.245707  -0.275673  2.369612
H    0.786945  0.240745  -0.449387
H    -0.596088  -0.618277  -0.452908
H    -0.725454  0.790452  1.497236
C    -0.656387  -1.229985  2.221388
C    0.011028  -2.555714  2.033960
N    1.384589  -2.701757  2.072047
C    -0.487113  -3.818749  1.834573
C    1.707464  -3.976646  1.900013
N    0.581812  -4.724856  1.751206
H    -1.702943  -1.325322  1.902303
H    -0.690126  -0.980364  3.293626
H    -1.524270  -4.127640  1.745953
H    2.727371  -4.347052  1.878571
H    1.990075  -1.823050  2.177978
O    1.298460  1.754938  2.220587
H    2.159220  2.033736  2.600568
Ca    0.322106  -6.850549  1.463024
