31
Energy: -38168.5580403 eV PBE+vdW (tier 2 basis)
C    0.453786  -3.395301  1.311518
C    0.065318  -2.069443  1.864396
O    0.930198  -1.157344  2.049693
H    0.863432  -3.240559  0.300837
H    -0.374236  -4.109391  1.252879
H    1.265833  -3.825835  1.913431
N    -1.230173  -1.844239  2.156788
C    -1.828019  -0.552020  2.549390
C    -1.436154  -0.217671  4.015372
O    -0.289668  0.295497  4.219331
H    -1.863453  -2.630343  2.021482
H    -1.346579  0.229258  1.941336
C    -3.329082  -0.611314  2.187030
C    -4.103784  0.675867  2.219698
N    -5.373612  0.748673  1.651193
C    -3.852761  1.932498  2.708871
C    -5.874811  1.982390  1.781997
N    -4.958780  2.710114  2.422687
H    -3.848402  -1.368355  2.802088
H    -3.376227  -0.998715  1.156108
H    -5.872474  -0.010366  1.187769
H    -2.997293  2.343350  3.228645
H    -6.843743  2.324383  1.430061
H    -5.071764  3.696479  2.657356
N    -2.269514  -0.483082  5.003021
C    -1.998309  -0.268764  6.431916
H    -3.161616  -0.915562  4.774096
H    -1.235165  0.504396  6.548199
H    -1.653620  -1.204508  6.891688
H    -2.924830  0.046775  6.922341
Ca    1.725501  0.247133  3.418781
