31
Energy: -38167.0624057 eV PBE+vdW (tier 2 basis)
C    -0.233698  -0.439759  0.173953
C    -0.357676  -0.771121  1.616876
O    0.534423  -1.554503  2.155738
H    -0.903580  0.360451  -0.148997
H    -0.458178  -1.338093  -0.420671
H    0.800451  -0.137969  -0.040316
N    -1.312566  -0.292803  2.396223
C    -2.591649  0.346307  2.002044
C    -3.206568  -0.476573  0.814733
O    -3.048695  -1.686761  0.808699
H    -1.270037  -0.608620  3.364998
H    -3.255942  0.110667  2.847496
C    -2.509559  1.895609  1.895153
C    -3.734802  2.624685  2.370152
N    -5.045361  2.327946  2.001972
C    -3.825849  3.719427  3.192807
C    -5.895076  3.195565  2.567900
N    -5.161706  4.045679  3.289919
H    -2.251851  2.210669  0.870728
H    -1.678745  2.248443  2.519555
H    -5.327912  1.558161  1.392612
H    -3.057518  4.290914  3.699595
H    -6.974908  3.203278  2.462207
H    -5.544454  4.821659  3.830140
N    -3.979199  0.209810  -0.073311
C    -4.654631  -0.504706  -1.171580
H    -3.756464  1.185596  -0.250083
H    -5.163728  -1.384007  -0.765967
H    -3.937977  -0.833705  -1.935033
H    -5.387862  0.166310  -1.628616
Ca    1.915207  -2.986836  2.568050
