31
Energy: -38168.0382742 eV PBE+vdW (tier 2 basis)
C    -2.011675  3.652032  0.749278
C    -1.099820  2.698183  1.433117
O    -0.156335  3.113330  2.170573
H    -1.381732  4.305432  0.122174
H    -2.499465  4.322254  1.471037
H    -2.763690  3.177547  0.112681
N    -1.234056  1.347159  1.258274
C    -2.505934  0.665602  1.503745
C    -2.834093  0.827013  3.037796
O    -1.974590  1.375088  3.804074
H    -0.430460  0.835295  1.629797
H    -3.301032  1.180117  0.942834
C    -2.441898  -0.817224  1.074555
C    -2.336093  -1.072535  -0.404107
N    -2.497101  -2.356094  -0.920763
C    -2.086325  -0.272242  -1.489769
C    -2.357165  -2.344877  -2.251923
N    -2.109097  -1.083548  -2.607374
H    -3.344771  -1.325168  1.445779
H    -1.600468  -1.308647  1.593144
H    -2.693446  -3.202587  -0.388309
H    -1.884958  0.787536  -1.566321
H    -2.434303  -3.201575  -2.914652
H    -1.959418  -0.776998  -3.568796
N    -4.003662  0.412656  3.478135
C    -4.477705  0.487319  4.869276
H    -4.668495  0.043890  2.799771
H    -5.156857  -0.351914  5.049188
H    -5.021011  1.427458  5.031659
H    -3.627778  0.421634  5.553045
Ca    -0.303567  2.688861  4.290081
