31
Energy: -38167.8804794 eV PBE+vdW (tier 2 basis)
C    -0.503036  -1.113576  -0.914187
C    -0.022266  -0.459192  0.334879
O    1.184293  -0.081264  0.428866
H    0.071620  -0.703887  -1.755292
H    -1.570706  -0.960698  -1.093044
H    -0.289222  -2.194863  -0.893262
N    -0.855946  -0.199895  1.390766
C    -1.655514  -1.207916  2.105421
C    -0.643714  -2.207504  2.786854
O    0.597977  -2.131417  2.508671
H    -0.411494  0.446599  2.045993
H    -2.142992  -0.656372  2.924727
C    -2.766690  -1.921498  1.302508
C    -3.875445  -1.033255  0.807988
N    -5.053465  -1.571255  0.293306
C    -4.039327  0.327792  0.745152
C    -5.896545  -0.594098  -0.062322
N    -5.290287  0.562576  0.208828
H    -3.214663  -2.675904  1.967622
H    -2.341083  -2.496322  0.467236
H    -5.274616  -2.561181  0.194387
H    -3.385549  1.141390  1.030279
H    -6.887009  -0.722073  -0.488813
H    -5.703578  1.480720  0.043340
N    -1.107237  -3.070203  3.667085
C    -0.299845  -4.044746  4.419039
H    -2.097626  -3.035093  3.902099
H    0.110672  -3.576429  5.323244
H    0.511559  -4.418883  3.788958
H    -0.947454  -4.876821  4.710958
Ca    2.435853  -1.217206  1.780129
