31
Energy: -38167.0439733 eV PBE+vdW (tier 2 basis)
C    0.194026  -0.441959  0.146853
C    0.049149  0.295003  1.424838
O    0.726158  1.405093  1.586916
H    1.251926  -0.708608  0.002809
H    -0.088186  0.222937  -0.682337
H    -0.392062  -1.363398  0.117659
N    -0.720691  -0.089825  2.430002
C    -1.597196  -1.280675  2.675367
C    -0.897614  -2.635465  2.363374
O    -0.956084  -3.129153  1.224967
H    -0.701905  0.553941  3.222542
H    -1.736962  -1.232917  3.762255
C    -3.046248  -1.169591  2.125588
C    -3.418034  -1.290309  0.676038
N    -3.098670  -2.367507  -0.137735
C    -4.345200  -0.556236  -0.025624
C    -3.781009  -2.303505  -1.281788
N    -4.546513  -1.205564  -1.225277
H    -3.468100  -0.222695  2.489499
H    -3.599279  -1.953366  2.671408
H    -2.358934  -3.038033  0.137179
H    -4.904001  0.331293  0.245549
H    -3.725813  -3.005451  -2.106961
H    -5.198738  -0.918609  -1.953668
N    -0.261134  -3.241587  3.374172
C    -0.144046  -2.847001  4.780980
H    0.126138  -4.150117  3.116023
H    -1.111837  -2.890386  5.298800
H    0.299382  -1.848955  4.888694
H    0.526776  -3.556282  5.274679
Ca    2.007478  2.982766  1.507171
