31
Energy: -38167.1911391 eV PBE+vdW (tier 2 basis)
C    -0.628184  -0.039246  -0.649059
C    -0.282243  -0.190207  0.792365
O    0.953911  -0.401335  1.151476
H    -1.203206  0.880037  -0.831588
H    -1.254948  -0.880281  -0.986615
H    0.273962  -0.016835  -1.265728
N    -1.212284  -0.116373  1.731870
C    -2.659916  0.085526  1.498366
C    -3.104817  1.545223  1.157332
O    -4.072662  1.639690  0.394345
H    -0.891838  -0.203381  2.697545
H    -2.910963  -0.479779  0.592403
C    -3.485013  -0.481583  2.686647
C    -4.909556  -0.857938  2.368431
N    -5.739550  -0.185077  1.482722
C    -5.679379  -1.845575  2.932315
C    -6.958393  -0.729419  1.495300
N    -6.935223  -1.736218  2.376626
H    -3.477891  0.241352  3.518585
H    -2.996302  -1.394543  3.055781
H    -5.406297  0.594147  0.880431
H    -5.445634  -2.594811  3.678759
H    -7.808212  -0.418046  0.897673
H    -7.734109  -2.329087  2.597562
N    -2.493530  2.620380  1.683884
C    -1.484684  2.723937  2.735391
H    -2.913800  3.495401  1.368285
H    -0.464923  2.590005  2.348357
H    -1.674054  2.021054  3.556908
H    -1.545272  3.729692  3.163278
Ca    2.954150  -0.801810  1.199894
