31
Energy: -38167.0285032 eV PBE+vdW (tier 2 basis)
C    0.430781  -0.248006  0.841525
C    -0.135317  -0.414209  2.203238
O    0.695943  -0.635004  3.188974
H    1.164232  0.572391  0.866847
H    -0.324424  -0.038182  0.084035
H    0.956977  -1.167278  0.552811
N    -1.413057  -0.265756  2.521446
C    -2.634694  -0.327513  1.694771
C    -2.686265  -1.738895  1.023120
O    -1.638688  -2.324784  0.780414
H    -1.598872  -0.350993  3.520819
H    -3.437081  -0.257224  2.438904
C    -2.885229  0.867728  0.713998
C    -2.591082  0.755907  -0.753738
N    -3.123892  -0.215202  -1.596672
C    -1.964647  1.653600  -1.583993
C    -2.834110  0.063352  -2.872476
N    -2.131086  1.199321  -2.875447
H    -2.356255  1.749636  1.097452
H    -3.953147  1.116972  0.809595
H    -3.642017  -1.038538  -1.280188
H    -1.453544  2.583429  -1.365170
H    -3.114376  -0.523000  -3.741391
H    -1.791227  1.663898  -3.717179
N    -3.915474  -2.203424  0.666422
C    -5.223345  -1.772542  1.192965
H    -3.873407  -3.163242  0.319096
H    -5.404434  -0.706513  1.010291
H    -5.325352  -1.988231  2.264961
H    -6.001372  -2.328262  0.660707
Ca    2.213178  -1.129191  4.439962
