31
Energy: -38167.9429725 eV PBE+vdW (tier 2 basis)
C    -2.026179  3.167593  1.029432
C    -1.083904  2.151395  1.560690
O    -0.213274  2.451682  2.428681
H    -2.724847  2.780635  0.282634
H    -1.415020  3.956278  0.557328
H    -2.570151  3.668014  1.842503
N    -1.103735  0.858731  1.092082
C    -2.318534  0.038165  1.157788
C    -2.638441  -0.195764  2.674411
O    -1.780274  0.176847  3.548792
H    -0.288590  0.342673  1.432233
H    -3.155328  0.601554  0.720916
C    -2.118432  -1.290262  0.371248
C    -2.217779  -1.198924  -1.122283
N    -1.227258  -0.700133  -1.965841
C    -3.209155  -1.654179  -1.956452
C    -1.590545  -0.844911  -3.247263
N    -2.795291  -1.419812  -3.249493
H    -2.871189  -2.019256  0.693835
H    -1.151132  -1.734149  0.657230
H    -0.332931  -0.307386  -1.683253
H    -4.151040  -2.143973  -1.739290
H    -1.011745  -0.555314  -4.118826
H    -3.315394  -1.664182  -4.093168
N    -3.778498  -0.737965  3.053563
C    -4.934773  -1.160517  2.254235
H    -3.871592  -0.869856  4.063810
H    -4.943751  -2.253017  2.143894
H    -4.933544  -0.679125  1.272086
H    -5.845830  -0.859441  2.783732
Ca    -0.277844  1.501600  4.386748
