31
Energy: -38167.8201129 eV PBE+vdW (tier 2 basis)
C    -0.767464  -0.071165  -0.205250
C    -0.314678  -0.164332  1.204937
O    0.870341  -0.509990  1.494134
H    -0.081239  0.535324  -0.811145
H    -1.798581  0.273932  -0.324736
H    -0.703967  -1.092845  -0.621125
N    -1.185214  0.075445  2.239351
C    -1.881272  1.357136  2.342600
C    -0.861267  2.385836  2.949333
O    0.373877  2.068296  3.009060
H    -0.794200  -0.234545  3.131181
H    -2.054439  1.722055  1.317440
C    -3.293561  1.245668  2.983809
C    -3.465553  0.496444  4.273965
N    -3.959463  -0.806708  4.322491
C    -3.371437  0.894494  5.585969
C    -4.165597  -1.183623  5.589796
N    -3.802574  -0.158206  6.365221
H    -3.935688  0.774368  2.226308
H    -3.720986  2.250518  3.110229
H    -4.198467  -1.387841  3.520285
H    -3.078237  1.840910  6.023640
H    -4.561764  -2.137986  5.923591
H    -3.874293  -0.154779  7.383322
N    -1.287830  3.577794  3.313974
C    -0.435133  4.681040  3.786338
H    -2.272793  3.796997  3.179439
H    0.008890  5.207853  2.931486
H    0.354860  4.289974  4.433644
H    -1.057282  5.381602  4.350801
Ca    2.152171  0.909329  2.505350
