31
Energy: -38168.1525092 eV PBE+vdW (tier 2 basis)
C    -2.195827  0.961347  -0.402439
C    -1.496851  0.224867  0.684465
O    -0.281778  -0.121547  0.568120
H    -2.106522  0.403061  -1.344683
H    -1.680861  1.921812  -0.560133
H    -3.253150  1.154608  -0.193682
N    -2.169651  -0.066754  1.820602
C    -1.536911  -0.691407  2.984875
C    -1.227566  -2.191216  2.697353
O    -0.043161  -2.438824  2.291381
H    -3.158803  0.166749  1.850494
H    -0.520520  -0.277017  3.017738
C    -2.115000  -0.245211  4.367867
C    -3.583478  -0.154637  4.677064
N    -4.203904  -0.926349  5.658327
C    -4.536296  0.758607  4.286943
C    -5.462248  -0.513657  5.857577
N    -5.676553  0.502433  5.019144
H    -1.705432  0.762333  4.531745
H    -1.627587  -0.872590  5.127972
H    -3.763492  -1.656610  6.215518
H    -4.482044  1.600034  3.605999
H    -6.170042  -0.921564  6.573366
H    -6.550118  1.028247  4.964350
N    -2.096198  -3.180548  2.803258
C    -3.523945  -3.162231  3.111478
H    -1.703765  -4.099731  2.582451
H    -3.923446  -2.147486  3.046917
H    -3.705695  -3.582309  4.109010
H    -4.047896  -3.787299  2.378394
Ca    1.296740  -1.545110  0.846529
