31
Energy: -38168.3831993 eV PBE+vdW (tier 2 basis)
C    0.768744  0.223275  -0.215320
C    0.383818  0.398204  1.210386
O    1.179740  0.927453  2.047542
H    0.960324  1.217665  -0.648185
H    0.009281  -0.286005  -0.817638
H    1.716036  -0.330491  -0.277035
N    -0.837989  -0.005798  1.611340
C    -1.413304  0.238030  2.946481
C    -0.678653  -0.637267  4.002346
O    0.303575  -0.085048  4.605389
H    -1.432962  -0.433606  0.904233
H    -1.137062  1.263496  3.233711
C    -2.952380  0.182937  2.822750
C    -3.755936  0.545528  4.038256
N    -5.135762  0.713322  3.943235
C    -3.451244  0.788818  5.353592
C    -5.650720  1.042636  5.133559
N    -4.636309  1.090982  5.998021
H    -3.279776  -0.802364  2.459045
H    -3.209091  0.900493  2.025632
H    -5.698561  0.616007  3.098588
H    -2.509627  0.780930  5.886796
H    -6.697132  1.235372  5.351395
H    -4.736150  1.322031  6.986590
N    -0.986526  -1.894196  4.269426
C    -1.992590  -2.785064  3.674140
H    -0.394553  -2.315536  4.989079
H    -2.985099  -2.605857  4.106017
H    -1.702628  -3.814587  3.905564
H    -2.016965  -2.683025  2.584491
Ca    2.066501  1.015666  3.971576
