31
Energy: -38168.0191595 eV PBE+vdW (tier 2 basis)
C    -1.660783  3.523941  0.661645
C    -1.029152  2.579887  1.618715
O    -0.205448  2.987430  2.491797
H    -2.199172  4.324718  1.187662
H    -2.314606  3.043705  -0.071295
H    -0.840759  4.025959  0.120683
N    -1.289398  1.236166  1.558069
C    -2.654817  0.718659  1.623814
C    -3.159765  0.933258  3.102620
O    -2.401969  1.532781  3.935908
H    -0.641228  0.707515  2.146409
H    -3.293193  1.342945  0.981151
C    -2.730974  -0.758184  1.146685
C    -2.507332  -0.979647  -0.324126
N    -1.418177  -1.675489  -0.840544
C    -3.296591  -0.684363  -1.409478
C    -1.532402  -1.805757  -2.168389
N    -2.668111  -1.199621  -2.522275
H    -3.718247  -1.169787  1.399481
H    -2.016595  -1.363972  1.724305
H    -0.653955  -2.084632  -0.306533
H    -4.254198  -0.182551  -1.481259
H    -0.836896  -2.313772  -2.829255
H    -3.020907  -1.152383  -3.478843
N    -4.363802  0.519082  3.436621
C    -4.981219  0.673259  4.764451
H    -4.944245  0.089263  2.719409
H    -4.233676  0.499087  5.543734
H    -5.782644  -0.065092  4.858623
H    -5.406437  1.679756  4.869797
Ca    -0.759303  2.807839  4.579420
