31
Energy: -38168.0186372 eV PBE+vdW (tier 2 basis)
C    -1.589865  3.557021  0.780365
C    -0.949167  2.553483  1.668694
O    -0.077112  2.898466  2.521873
H    -2.084714  4.347234  1.362178
H    -2.285134  3.128506  0.053624
H    -0.777343  4.060599  0.229837
N    -1.254686  1.222971  1.563757
C    -2.631316  0.743289  1.660998
C    -3.083090  0.929911  3.161008
O    -2.274376  1.464355  3.990349
H    -0.597985  0.647350  2.095712
H    -3.272507  1.403098  1.057760
C    -2.762288  -0.717737  1.153995
C    -2.567106  -0.911701  -0.325493
N    -1.668282  -1.833262  -0.854061
C    -3.229818  -0.388873  -1.409473
C    -1.773573  -1.878856  -2.188159
N    -2.716222  -0.999205  -2.533692
H    -3.756240  -1.106171  1.420324
H    -2.052778  -1.354327  1.703971
H    -1.038444  -2.434350  -0.325550
H    -4.031968  0.335946  -1.477513
H    -1.202730  -2.513304  -2.859173
H    -3.017312  -0.826648  -3.493433
N    -4.295522  0.559781  3.515857
C    -4.867945  0.694042  4.865881
H    -4.915393  0.183570  2.801268
H    -5.246613  1.713262  5.016849
H    -4.106769  0.462325  5.616416
H    -5.697374  -0.012827  4.959366
Ca    -0.558331  2.649050  4.619465
