31
Energy: -38168.4081445 eV PBE+vdW (tier 2 basis)
C    2.905229  -0.720366  2.080100
C    1.700240  -0.970420  2.919340
O    1.820012  -1.312412  4.137042
H    3.532506  0.044569  2.559629
H    2.676683  -0.408446  1.055755
H    3.507639  -1.641233  2.049371
N    0.487028  -0.826314  2.351852
C    -0.857194  -1.121181  2.896965
C    -1.152238  -0.283533  4.163484
O    -0.666577  -0.621851  5.293649
H    0.500619  -0.537130  1.376041
H    -1.541728  -0.783361  2.111034
C    -1.092842  -2.650237  3.111666
C    -2.518287  -3.107242  2.994747
N    -3.031245  -3.702976  1.843395
C    -3.551393  -3.123410  3.899965
C    -4.304011  -4.071243  2.033732
N    -4.630553  -3.716656  3.278934
H    -0.702767  -2.957837  4.089396
H    -0.487508  -3.181468  2.364490
H    -2.520460  -3.893760  0.982653
H    -3.601405  -2.790328  4.929236
H    -4.945428  -4.571551  1.314298
H    -5.542688  -3.887565  3.703693
N    -1.922691  0.785579  4.063767
C    -2.553652  1.377567  2.871257
H    -2.075625  1.279619  4.945678
H    -3.297976  0.698868  2.437577
H    -1.802236  1.655865  2.123037
H    -3.070274  2.288618  3.186622
Ca    1.248822  -1.118162  6.160596
