18
Energy: -237066.689804 eV PBE+vdW (tier 2 basis)
N    -0.546068  -1.185813  0.121298
C    -0.208852  -0.342336  1.296374
C    1.312500  -0.302827  1.425042
O    2.025186  -1.260267  1.087972
H    -0.287758  -0.686412  -0.736106
H    -1.565231  -1.279603  0.068761
H    -0.579029  0.690394  1.210672
C    -0.818885  -0.942861  2.587056
O    -0.370172  -2.351041  2.632520
C    -2.332388  -0.848019  2.657254
H    -0.369641  -0.420925  3.445390
H    -0.672005  -2.725408  3.479013
H    -2.647053  0.203895  2.642098
H    -2.696551  -1.275199  3.601258
H    -2.835953  -1.377773  1.837199
O    1.763541  0.807896  1.951987
H    2.740521  0.786101  2.059276
Ba    0.913841  -3.518801  0.633935
