18
Energy: -237065.723083 eV PBE+vdW (tier 2 basis)
N    0.039505  -0.343517  0.012900
C    -0.236867  -0.148905  1.486854
C    1.057470  0.019192  2.289088
O    1.067753  0.421986  3.419689
H    0.150920  0.543005  -0.494026
H    0.907846  -0.886358  -0.116144
H    -0.835781  0.764850  1.591959
C    -1.075662  -1.384321  1.944399
O    -2.085008  -1.618428  0.970626
C    -1.675167  -1.175415  3.330997
H    -0.392535  -2.254618  1.966376
H    -0.781591  -0.870109  -0.351450
H    -2.181511  -2.095616  3.663642
H    -2.389525  -0.338304  3.327337
H    -0.914957  -0.951633  4.089236
O    2.128322  -0.384759  1.563001
H    2.940773  -0.289790  2.103896
Ba    -4.193772  -2.423812  0.994380
