18
Energy: -237065.933444 eV PBE+vdW (tier 2 basis)
N    0.950787  -0.942446  0.279267
C    0.076968  -0.347123  1.363367
C    1.088764  0.086561  2.431700
O    2.253363  -0.253387  2.362075
H    1.898765  -1.037221  0.731148
H    1.042074  -0.329628  -0.540524
H    -0.453560  0.519623  0.952949
C    -0.985769  -1.392096  1.861373
O    -1.951671  -0.731682  2.620721
C    -0.357064  -2.558672  2.623182
H    -1.456344  -1.776282  0.932352
H    0.617892  -1.860597  -0.042536
H    0.090449  -2.221384  3.567660
H    0.423275  -3.080840  2.049533
H    -1.128070  -3.304223  2.849731
O    0.553198  0.832241  3.401312
H    1.275506  1.078193  4.019494
Ba    -3.527566  0.016963  3.960199
