18
Energy: -237065.871566 eV PBE+vdW (tier 2 basis)
N    0.075550  -0.014848  0.058018
C    0.020605  0.022554  1.542124
C    1.411725  0.284735  2.079948
O    2.410616  -0.118075  1.450427
H    -0.124887  0.921785  -0.307050
H    -0.739635  -0.593500  -0.209208
H    -0.691948  0.783235  1.899482
C    -0.482587  -1.401626  2.044809
O    -1.494044  -1.822386  1.145922
C    -0.911982  -1.407408  3.500277
H    0.355749  -2.108361  1.900126
H    -2.373006  -1.723391  1.552405
H    -0.081127  -1.169810  4.178205
H    -1.261062  -2.410321  3.776255
H    -1.729670  -0.694424  3.682773
O    1.605469  0.873490  3.232734
H    0.780233  1.185102  3.656203
Ba    2.538001  -0.966750  -0.851449
