18
Energy: -237066.464075 eV PBE+vdW (tier 2 basis)
N    0.123260  1.390303  1.556134
C    0.361718  0.231894  2.450649
C    1.878695  0.086635  2.634507
O    2.649087  0.398143  1.718792
H    0.353643  2.256288  2.054058
H    -0.880836  1.457715  1.363145
H    -0.126636  0.347880  3.432610
C    -0.201010  -1.066083  1.812345
O    0.373646  -1.137285  0.457650
C    -1.718435  -1.122825  1.769354
H    0.188765  -1.922749  2.384578
H    0.104965  -1.989796  0.071789
H    -2.131946  -1.087307  2.786045
H    -2.050061  -2.070665  1.324625
H    -2.161329  -0.307709  1.181330
O    2.373142  -0.422802  3.737268
H    1.709123  -0.587555  4.436207
Ba    1.826209  0.812918  -0.626088
