18
Energy: -237065.145122 eV PBE+vdW (tier 2 basis)
N    0.416276  -0.762395  0.039832
C    -0.073862  -0.208078  1.265485
C    0.937123  0.339794  2.269181
O    0.615321  0.488593  3.484936
H    0.571720  -0.071463  -0.689727
H    1.247548  -1.342119  0.133458
H    -0.697260  0.671782  1.022193
C    -1.019485  -1.227403  1.996248
O    -1.514799  -0.611915  3.242864
C    -0.368830  -2.567892  2.294038
H    -1.874635  -1.361710  1.318643
H    -0.448408  0.022435  3.553681
H    0.493985  -2.473024  2.968189
H    -0.038446  -3.045315  1.363243
H    -1.088441  -3.255785  2.758591
O    2.119352  0.645393  1.833499
H    2.688443  1.013296  2.546699
Ba    -3.405234  -0.803651  4.562355
