18
Energy: -237066.668639 eV PBE+vdW (tier 2 basis)
N    0.465580  -0.365940  -0.064718
C    -0.089321  0.024007  1.283240
C    1.077306  0.568889  2.121272
O    2.199116  0.782280  1.546604
H    1.371390  0.117317  -0.199818
H    -0.168351  -0.168821  -0.846799
H    -0.823547  0.830793  1.157756
C    -0.754513  -1.225728  1.906370
O    0.245553  -2.238806  1.695337
C    -2.100927  -1.572936  1.288444
H    -0.869371  -1.017938  2.981774
H    -0.124252  -3.117066  1.886932
H    -2.504854  -2.479808  1.757597
H    -2.035680  -1.763270  0.207372
H    -2.830462  -0.770905  1.462099
O    0.878281  0.812010  3.349205
H    0.642549  -1.393458  0.004390
Ba    3.215500  1.607378  3.767942
