18
Energy: -237065.968688 eV PBE+vdW (tier 2 basis)
N    0.942447  -1.420690  1.021358
C    0.116896  -0.265456  1.350772
C    0.799752  0.581483  2.417178
O    0.575448  0.467575  3.648637
H    1.607704  -1.237386  0.272094
H    1.441679  -1.826708  1.809940
H    0.031479  0.362971  0.452855
C    -1.316759  -0.685552  1.739764
O    -1.262888  -1.663719  2.865502
C    -2.095540  -1.277556  0.585391
H    -1.854521  0.182649  2.154925
H    -1.284256  -2.553455  2.467496
H    -3.090838  -1.604727  0.910094
H    -1.553886  -2.123269  0.139606
H    -2.239269  -0.522590  -0.198783
O    1.703974  1.402610  1.946401
H    2.180127  1.876005  2.663220
Ba    -0.852552  -0.787184  5.225547
