18
Energy: -237065.903902 eV PBE+vdW (tier 2 basis)
N    -0.218672  -0.610380  0.245726
C    0.022121  -0.063996  1.554223
C    1.393722  -0.356919  2.175605
O    1.615023  -0.382082  3.409939
H    0.061176  0.001757  -0.516322
H    0.169650  -1.537508  0.088242
H    0.001290  1.038427  1.476715
C    -1.168447  -0.459955  2.477242
O    -1.164515  0.358980  3.728573
C    -1.245710  -1.928003  2.850134
H    -2.065871  -0.174928  1.916077
H    -1.903958  0.988020  3.676972
H    -2.142309  -2.133228  3.447421
H    -0.355080  -2.288802  3.392691
H    -1.323485  -2.539746  1.941714
O    2.339562  -0.579206  1.300700
H    3.207571  -0.725898  1.736327
Ba    0.518093  -0.115991  5.596629
