18
Energy: -237066.504648 eV PBE+vdW (tier 2 basis)
N    0.608386  -0.448841  -0.060114
C    -0.000856  -0.055899  1.268630
C    1.089364  0.688052  2.047789
O    2.289041  0.561376  1.632854
H    1.641111  -0.354783  0.071792
H    0.320106  0.178915  -0.821839
H    -0.882168  0.569427  1.088544
C    -0.404472  -1.271586  2.141814
O    0.831378  -1.797954  2.707722
C    -1.208043  -2.337080  1.417152
H    -1.009341  -0.837507  2.953374
H    0.667090  -2.716860  2.979094
H    -1.548975  -3.101333  2.128775
H    -0.631875  -2.864905  0.640496
H    -2.110736  -1.907125  0.962498
O    0.781560  1.192413  3.163487
H    0.370001  -1.412542  -0.332571
Ba    2.903097  0.301831  4.126798
