27
Energy: -243225.434527 eV PBE+vdW (tier 2 basis)
C    -0.229771  0.123766  0.155428
C    -0.310370  0.121306  1.645474
O    0.694569  0.363661  2.362541
H    0.495143  -0.637031  -0.164936
H    0.160994  1.094326  -0.178117
H    -1.191105  -0.066475  -0.333051
N    -1.518341  -0.149594  2.223718
C    -1.586165  -0.151633  3.671601
C    -1.216985  -1.507438  4.307535
O    -0.097561  -1.570815  4.891377
H    -2.312944  -0.368756  1.630890
H    -0.705335  0.444603  3.893583
C    -2.643910  0.684363  4.395313
C    -1.935632  1.458255  5.537624
O    -0.683291  1.513402  5.615875
N    -2.719878  2.074876  6.415764
H    -3.480959  0.105277  4.805440
H    -3.070615  1.428913  3.705627
H    -3.732304  2.047726  6.351459
H    -2.308201  2.629142  7.162410
N    -2.020482  -2.562229  4.234598
C    -3.309667  -2.685842  3.559537
H    -1.646762  -3.407506  4.668568
H    -4.025463  -3.178865  4.227212
H    -3.209073  -3.286910  2.646425
H    -3.710148  -1.701893  3.298887
Ba    1.563730  0.365669  4.819442
