27
Energy: -243225.12559 eV PBE+vdW (tier 2 basis)
C    0.405221  -0.741741  0.213493
C    -0.174846  0.190706  1.234390
O    0.482498  1.072075  1.801170
H    0.713088  -0.149197  -0.659153
H    -0.286942  -1.523975  -0.117010
H    1.313166  -1.201162  0.622125
N    -1.513360  0.040088  1.532020
C    -2.205826  1.017615  2.363688
C    -1.948091  0.767673  3.873449
O    -2.887692  0.456685  4.683397
H    -2.030002  -0.739728  1.138151
H    -1.732512  1.989224  2.140891
C    -3.695991  1.067121  1.961880
C    -4.463647  2.263469  2.497531
O    -5.056543  2.218797  3.613578
N    -4.498237  3.366011  1.758029
H    -4.215418  0.158936  2.296660
H    -3.732254  1.076810  0.864248
H    -4.065056  3.418112  0.841516
H    -5.010885  4.182369  2.084430
N    -0.693267  0.903034  4.241683
C    -0.169328  0.665447  5.581463
H    -0.037526  1.132654  3.457670
H    -0.133348  1.602870  6.152911
H    0.849827  0.276317  5.493747
H    -0.791216  -0.063963  6.109480
Ba    -4.992812  0.941755  5.711560
