27
Energy: -243225.46999 eV PBE+vdW (tier 2 basis)
C    0.802268  0.014159  0.568511
C    0.402434  0.805125  1.767713
O    1.153501  1.675204  2.274731
H    1.646723  -0.624599  0.872497
H    1.177597  0.674484  -0.221886
H    0.012755  -0.637485  0.181754
N    -0.805542  0.570468  2.372044
C    -2.080799  0.452294  1.668734
C    -2.130159  1.434758  0.464603
O    -1.476011  2.509273  0.481289
H    -0.874202  1.022951  3.281508
H    -2.217710  -0.573179  1.291890
C    -3.229644  0.719867  2.668004
C    -3.260538  2.095049  3.344505
O    -2.269016  2.869708  3.370160
N    -4.399623  2.417537  3.953293
H    -3.169885  -0.037992  3.466962
H    -4.190162  0.545125  2.164819
H    -5.206631  1.801670  3.965390
H    -4.460099  3.281760  4.486356
N    -2.895504  1.085209  -0.562120
C    -3.083657  1.912543  -1.758368
H    -3.356927  0.180014  -0.536073
H    -2.116853  2.117176  -2.232922
H    -3.563132  2.862844  -1.495863
H    -3.721806  1.367975  -2.458729
Ba    -0.194943  3.862294  2.228670
