27
Energy: -243224.677702 eV PBE+vdW (tier 2 basis)
C    -0.092380  -0.665626  -0.246832
C    0.185614  -0.084818  1.119623
O    1.225490  0.445921  1.438856
H    0.727581  -0.370633  -0.907230
H    -1.039647  -0.308876  -0.674967
H    -0.118613  -1.765391  -0.216055
N    -0.862024  -0.132851  2.080098
C    -2.026326  -0.982647  2.051348
C    -3.340578  -0.168309  2.039428
O    -4.466227  -0.763638  2.097060
H    -0.527280  0.175740  2.993929
H    -2.020700  -1.518287  1.089334
C    -2.006228  -2.040274  3.215557
C    -2.443220  -3.430269  2.809325
O    -3.645509  -3.681195  2.497281
N    -1.527460  -4.390977  2.778213
H    -2.651791  -1.715495  4.043443
H    -0.982244  -2.073355  3.604668
H    -0.562447  -4.227969  3.047831
H    -1.792179  -5.340007  2.522415
N    -3.218876  1.137484  1.935992
C    -4.300621  2.113275  1.865575
H    -2.248268  1.461682  1.881420
H    -5.258896  1.609249  2.010576
H    -4.288889  2.609935  0.887416
H    -4.160483  2.869258  2.647027
Ba    -5.862516  -2.724812  2.136127
