27
Energy: -243225.933032 eV PBE+vdW (tier 2 basis)
C    1.271680  -1.951818  1.616143
C    0.552181  -0.745049  2.132744
O    1.159127  0.337807  2.334288
H    1.761405  -1.701367  0.666178
H    0.624687  -2.822504  1.467257
H    2.067977  -2.215303  2.326144
N    -0.767539  -0.873606  2.393798
C    -1.667239  0.124126  2.989626
C    -2.047778  1.213730  1.958689
O    -1.190413  1.912183  1.366516
H    -1.177526  -1.782652  2.201413
H    -2.584507  -0.439716  3.195757
C    -1.148071  0.625994  4.388292
C    -1.119592  2.123844  4.644480
O    -0.311066  2.867823  4.037496
N    -1.950853  2.615789  5.563616
H    -0.109671  0.294528  4.509215
H    -1.732451  0.116687  5.163039
H    -1.900931  3.602241  5.808163
H    -2.570797  2.026488  6.108222
N    -3.350551  1.360510  1.720431
C    -3.889106  2.333330  0.766669
H    -4.008406  0.742812  2.185267
H    -4.978980  2.252392  0.767066
H    -3.510005  2.128169  -0.241653
H    -3.601812  3.350875  1.056232
Ba    1.098234  2.795690  1.955908
