27
Energy: -243225.159965 eV PBE+vdW (tier 2 basis)
C    -2.360323  -3.857022  -0.388874
C    -1.602567  -2.881758  0.457009
O    -0.433538  -2.516221  0.132510
H    -2.545744  -3.390629  -1.367529
H    -3.319511  -4.160621  0.043394
H    -1.748196  -4.748365  -0.573708
N    -2.209458  -2.402897  1.553961
C    -1.764558  -1.293203  2.417729
C    -0.738037  -1.815072  3.459220
O    0.259213  -2.487790  3.018444
H    -3.132617  -2.778811  1.757315
H    -1.205893  -0.592650  1.775054
C    -3.064227  -0.610764  2.915103
C    -2.917402  0.668319  3.747089
O    -2.317492  0.656043  4.832206
N    -3.500951  1.775394  3.263537
H    -3.629064  -1.317337  3.544921
H    -3.675575  -0.414630  2.024414
H    -4.048378  1.786732  2.411994
H    -3.489956  2.617715  3.833209
N    -0.902349  -1.532748  4.726184
C    0.019062  -1.953650  5.778548
H    -1.591334  -0.750238  4.949994
H    0.402521  -2.956831  5.570324
H    -0.523637  -1.957084  6.728498
H    0.860265  -1.251216  5.859399
Ba    1.757745  -2.800667  1.167056
