27
Energy: -243224.939725 eV PBE+vdW (tier 2 basis)
C    0.676779  2.376213  0.811970
C    0.291377  1.650482  2.067733
O    0.262261  2.261041  3.176339
H    0.012426  3.240669  0.679680
H    0.632233  1.755184  -0.089007
H    1.699290  2.764289  0.915431
N    -0.007825  0.347630  1.954183
C    -0.410457  -0.663356  2.951465
C    -1.941277  -0.916015  3.067154
O    -2.320796  -1.694603  3.947631
H    0.122212  -0.029956  1.018451
H    -0.047760  -1.603107  2.507587
C    0.305520  -0.601738  4.333167
C    -0.307588  0.149713  5.509501
O    0.261736  1.188196  5.983273
N    -1.385556  -0.353726  6.075975
H    1.321970  -0.221308  4.187119
H    0.409129  -1.645106  4.661201
H    -1.873951  -1.130150  5.599842
H    -1.777230  0.076663  6.909781
N    -2.746038  -0.335409  2.163292
C    -4.181967  -0.606448  2.081310
H    -2.336255  0.265488  1.457250
H    -4.749820  0.327253  2.167737
H    -4.453369  -1.278549  2.899490
H    -4.421448  -1.088031  1.125560
Ba    0.875406  3.376680  5.265882
