27
Energy: -243225.495587 eV PBE+vdW (tier 2 basis)
C    -0.220213  1.103170  0.239737
C    -0.247593  0.707216  1.678087
O    0.718250  0.946269  2.448677
H    -0.024937  2.181596  0.170941
H    -1.146594  0.867735  -0.294421
H    0.619980  0.596383  -0.254516
N    -1.362199  0.074613  2.150703
C    -1.378616  -0.307623  3.548782
C    -0.754824  -1.695499  3.812859
O    0.404834  -1.719281  4.309409
H    -2.125803  -0.127752  1.512427
H    -0.621727  0.369971  3.933870
C    -2.555701  0.091622  4.437560
C    -1.967734  0.595059  5.782099
O    -0.744047  0.850196  5.906835
N    -2.824769  0.764400  6.783808
H    -3.284969  -0.708087  4.621558
H    -3.102071  0.931977  3.981867
H    -3.817239  0.576544  6.685815
H    -2.498819  1.134511  7.673202
N    -1.438532  -2.790053  3.500445
C    -0.946590  -4.160849  3.659311
H    -2.367301  -2.675761  3.103137
H    0.045255  -4.128746  4.115600
H    -0.885886  -4.649892  2.679720
H    -1.630346  -4.726701  4.302616
Ba    1.653189  0.447986  4.824872
