27
Energy: -243225.419763 eV PBE+vdW (tier 2 basis)
C    -0.532855  -0.791665  0.421599
C    -0.096613  -0.454284  1.809467
O    1.099617  -0.095457  2.049296
H    0.123816  -1.566836  0.006086
H    -0.413512  0.100616  -0.209415
H    -1.572895  -1.128741  0.366062
N    -0.997195  -0.522338  2.797809
C    -0.712665  -0.162792  4.191894
C    0.113536  -1.283541  4.873614
O    1.381253  -1.132338  4.932348
H    -1.906745  -0.944013  2.610663
H    -0.026239  0.693752  4.157384
C    -1.979462  0.327616  4.921007
C    -3.186884  -0.607114  4.811420
O    -3.041246  -1.789718  4.449981
N    -4.381826  -0.087060  5.116277
H    -2.237137  1.322585  4.530618
H    -1.741092  0.467938  5.986393
H    -4.508532  0.875729  5.406616
H    -5.199946  -0.690176  5.093841
N    -0.518017  -2.344715  5.320090
C    0.110360  -3.491878  5.967369
H    -1.539691  -2.362448  5.104978
H    0.218115  -4.319928  5.253976
H    -0.528229  -3.824931  6.792287
H    1.092754  -3.209961  6.355133
Ba    3.095332  -0.296305  3.427207
