27
Energy: -243225.089429 eV PBE+vdW (tier 2 basis)
C    -1.977775  -2.081790  -1.224708
C    -1.686831  -2.073494  0.244802
O    -1.657576  -3.160597  0.897845
H    -1.882506  -1.099503  -1.698936
H    -3.006363  -2.443927  -1.368528
H    -1.318102  -2.794610  -1.734867
N    -1.472350  -0.884103  0.826282
C    -1.382695  -0.527350  2.249190
C    -0.109154  -1.037898  2.964317
O    0.459667  -2.135747  2.651548
H    -1.502036  -0.086183  0.197464
H    -1.294487  0.566907  2.245492
C    -2.675699  -0.837287  3.044242
C    -2.912270  0.249355  4.113590
O    -2.027170  1.064552  4.402291
N    -4.118987  0.247173  4.702095
H    -2.639424  -1.822130  3.530603
H    -3.524920  -0.860883  2.347146
H    -4.867754  -0.377502  4.428696
H    -4.316985  0.947584  5.411243
N    0.313715  -0.260608  3.937688
C    1.463045  -0.520904  4.796325
H    -0.336116  0.517305  4.178243
H    1.134384  -0.919365  5.765626
H    1.991893  0.422380  4.969725
H    2.137449  -1.232383  4.313251
Ba    0.120052  -4.416990  1.980331
