37
Energy: -611340.431707 eV PBE+vdW (tier 2 basis)
C    2.248344  2.129819  3.229853
C    1.240017  1.987796  2.144006
O    1.562741  1.391863  1.059345
H    1.863059  2.633433  4.122579
H    3.120907  2.680318  2.850046
H    2.610476  1.127761  3.504570
N    0.002687  2.466293  2.335128
C    -1.154259  2.315559  1.432643
C    -1.031933  3.337563  0.274713
O    -0.242110  3.080594  -0.702025
H    -0.159715  2.954705  3.214084
H    -1.061414  1.328865  0.952418
C    -2.479779  2.358376  2.219203
C    -2.717074  1.140821  3.136055
C    -4.101338  1.204149  3.807621
N    -4.338249  0.019586  4.636150
C    -5.219866  -0.059414  5.657894
N    -5.213498  -1.140698  6.443318
N    -6.070953  0.942115  5.906012
H    -3.294870  2.410734  1.481588
H    -2.532816  3.285189  2.817229
H    -1.942819  1.074044  3.914563
H    -2.648016  0.221041  2.533077
H    -4.883529  1.297006  3.034855
H    -4.160034  2.089627  4.457494
H    -3.965390  -0.864995  4.303945
H    -5.981278  -1.336783  7.077469
H    -4.437787  -1.793232  6.450728
H    -6.620114  0.954050  6.759864
H    -6.343973  1.601193  5.187340
N    -1.724557  4.455664  0.295534
C    -1.685438  5.514847  -0.722194
H    -2.348140  4.610155  1.085481
H    -1.218233  5.132558  -1.631877
H    -1.114992  6.371675  -0.340440
H    -2.711486  5.834213  -0.935037
Pb    1.453424  1.671513  -1.159234
