37
Energy: -611338.289854 eV PBE+vdW (tier 2 basis)
C    0.103749  0.548745  -0.012020
C    -0.106697  0.192694  1.425831
O    0.797278  -0.164523  2.184759
H    -0.820981  0.767128  -0.557083
H    0.630399  -0.278334  -0.507209
H    0.769294  1.421416  -0.072433
N    -1.418198  0.262248  1.902343
C    -1.680861  0.074755  3.319840
C    -2.781923  -0.969986  3.503742
O    -3.340415  -1.134179  4.665416
H    -2.061452  0.848498  1.370851
H    -0.765247  -0.413634  3.711522
C    -1.946889  1.382590  4.104880
C    -0.850511  2.466483  4.027241
C    0.395801  2.333009  4.923241
N    1.464365  1.523186  4.339836
C    2.778150  1.662171  4.595852
N    3.652690  0.987294  3.836272
N    3.216712  2.454581  5.578828
H    -2.133419  1.126379  5.157645
H    -2.879797  1.826415  3.724094
H    -1.339203  3.399568  4.339410
H    -0.541898  2.648776  2.987098
H    0.110516  1.936579  5.913584
H    0.786528  3.348487  5.085129
H    1.218982  0.839149  3.612399
H    3.347453  0.483401  3.010908
H    4.641411  0.958715  4.059217
H    2.590530  2.858485  6.263217
H    4.205471  2.646080  5.699576
N    -3.131187  -1.722474  2.483410
C    -4.115737  -2.792917  2.512409
H    -2.625818  -1.522151  1.613590
H    -3.815136  -3.585909  3.219491
H    -4.178212  -3.255824  1.521419
H    -5.119530  -2.397194  2.744809
Pb    -4.794931  -2.211588  5.869614
