37
Energy: -611338.952025 eV PBE+vdW (tier 2 basis)
C    0.342624  0.994543  -0.327665
C    -0.028899  -0.173225  0.508721
O    -0.013932  -1.346238  -0.008614
H    1.415864  0.881499  -0.563405
H    0.202483  1.958276  0.165762
H    -0.177691  0.969993  -1.293499
N    -0.360345  -0.055927  1.813598
C    -1.354634  0.908530  2.339390
C    -2.605393  0.805319  1.421038
O    -2.811188  -0.262628  0.738285
H    -0.364642  -0.953839  2.298305
H    -1.684623  0.444332  3.284444
C    -0.836103  2.314270  2.721142
C    0.349365  2.238182  3.706958
C    0.642829  3.505518  4.525688
N    1.302399  4.568856  3.753286
C    1.476355  5.833432  4.212642
N    2.091179  6.731716  3.436758
N    1.006391  6.197071  5.408793
H    -1.665100  2.837120  3.224967
H    -0.588070  2.909326  1.831994
H    1.261816  1.907595  3.187102
H    0.142325  1.455705  4.452854
H    1.276489  3.207987  5.377195
H    -0.295540  3.910357  4.932663
H    1.989848  4.265860  3.068458
H    2.396579  7.627026  3.804338
H    2.277449  6.555407  2.456741
H    1.012337  7.171257  5.694941
H    0.796096  5.519238  6.131433
N    -3.487359  1.780418  1.396675
C    -4.761238  1.744506  0.659773
H    -3.292286  2.613157  1.946941
H    -5.339186  0.861087  0.954047
H    -4.574751  1.719653  -0.420495
H    -5.325035  2.647173  0.907934
Pb    -2.093397  -2.229829  -0.204747
