37
Energy: -611338.973286 eV PBE+vdW (tier 2 basis)
C    -0.048604  0.125974  0.399710
C    -0.557604  -0.169832  1.761828
O    0.166464  -0.828137  2.586861
H    0.340361  -0.814764  -0.021455
H    0.817684  0.803586  0.448658
H    -0.806706  0.535499  -0.273527
N    -1.790964  0.225436  2.162854
C    -2.273054  1.604248  2.006422
C    -1.364382  2.490627  2.907832
O    -0.609175  1.943214  3.797948
H    -2.069242  -0.190012  3.054176
H    -2.120739  1.915538  0.962714
C    -3.769251  1.736363  2.379970
C    -4.802497  1.397160  1.284699
C    -5.192115  -0.081267  1.117769
N    -6.354030  -0.163080  0.224741
C    -6.818196  -1.267403  -0.395118
N    -6.325013  -2.476158  -0.092733
N    -7.752221  -1.143487  -1.342073
H    -3.943474  2.779805  2.671502
H    -3.961850  1.156089  3.297317
H    -4.477583  1.805530  0.315416
H    -5.714834  1.950551  1.556351
H    -5.435792  -0.510912  2.104949
H    -4.372773  -0.669598  0.678705
H    -6.946250  0.660739  0.168318
H    -6.583994  -3.287789  -0.644871
H    -5.918007  -2.664335  0.815019
H    -8.284670  -1.943596  -1.668382
H    -7.974415  -0.247226  -1.761356
N    -1.348201  3.800750  2.778939
C    -2.084679  4.662899  1.847276
H    -0.735437  4.285576  3.439948
H    -2.910311  5.162692  2.370992
H    -2.474785  4.091205  1.001113
H    -1.396969  5.427587  1.468701
Pb    0.740038  0.250413  4.512124
