37
Energy: -611340.105392 eV PBE+vdW (tier 2 basis)
C    -1.169373  -2.930377  -0.437823
C    -0.822522  -2.020863  0.686178
O    0.369265  -1.569750  0.788849
H    -0.506868  -3.807399  -0.416987
H    -0.966199  -2.409055  -1.385693
H    -2.213321  -3.260562  -0.426102
N    -1.771577  -1.670646  1.567556
C    -1.613894  -0.676847  2.641354
C    -0.701822  -1.252445  3.755033
O    0.531585  -0.887157  3.757352
H    -2.702611  -2.053391  1.411292
H    -1.020434  0.152332  2.227193
C    -2.992124  -0.103741  3.036728
C    -2.952360  1.014132  4.094086
C    -4.340779  1.658325  4.263859
N    -4.305421  2.744922  5.245368
C    -5.378651  3.240367  5.901504
N    -6.615597  2.839119  5.588669
N    -5.190521  4.115513  6.893903
H    -3.665950  -0.907890  3.363368
H    -3.420005  0.297296  2.104387
H    -2.231483  1.788023  3.783938
H    -2.611069  0.627160  5.066410
H    -5.060250  0.905001  4.617228
H    -4.693092  2.031049  3.286903
H    -3.460265  3.306399  5.291808
H    -7.404400  3.089763  6.176749
H    -6.839000  2.458922  4.676930
H    -5.958770  4.664158  7.266575
H    -4.282291  4.252359  7.322764
N    -1.104647  -2.100866  4.680731
C    -2.415984  -2.721732  4.903727
H    -0.366417  -2.376121  5.333373
H    -2.254880  -3.642385  5.473178
H    -2.893761  -2.989040  3.956804
H    -3.068318  -2.063156  5.490571
Pb    2.038807  -0.812417  2.070238
