37
Energy: -611339.141164 eV PBE+vdW (tier 2 basis)
C    0.482288  -1.474617  2.174655
C    -0.406121  -1.818330  3.311802
O    0.018336  -2.593243  4.240455
H    1.362984  -0.914492  2.522922
H    -0.020656  -0.928202  1.372301
H    0.877307  -2.421220  1.770912
N    -1.674151  -1.354812  3.395517
C    -2.030411  0.057209  3.221626
C    -1.392135  0.818612  4.427484
O    -0.886824  0.174719  5.415115
H    -2.229161  -1.825762  4.113455
H    -1.566381  0.428359  2.295863
C    -3.567241  0.229942  3.176797
C    -4.301657  -0.457011  2.003667
C    -4.507271  0.423622  0.759151
N    -5.388093  -0.266080  -0.189159
C    -5.595638  0.079659  -1.477535
N    -6.290308  -0.739549  -2.271936
N    -5.081531  1.214092  -1.969400
H    -3.799690  1.304806  3.189882
H    -3.972930  -0.157215  4.124435
H    -5.293381  -0.747009  2.381630
H    -3.796329  -1.392663  1.720680
H    -3.552380  0.634594  0.253437
H    -4.952974  1.385517  1.066376
H    -6.028664  -0.954279  0.196174
H    -6.492973  -1.697365  -2.008260
H    -6.650059  -0.427645  -3.168235
H    -5.125596  1.410117  -2.964525
H    -4.862298  1.998727  -1.368107
N    -1.387031  2.134489  4.421400
C    -0.839255  2.986586  5.489514
H    -1.779781  2.610269  3.611575
H    0.257222  2.994988  5.443542
H    -1.166498  2.615659  6.465947
H    -1.211788  4.003639  5.341206
Pb    0.069590  -1.702076  6.326280
