37
Energy: -611338.094001 eV PBE+vdW (tier 2 basis)
C    -0.454688  -0.596618  -0.895657
C    -0.326848  -0.334306  0.566870
O    0.680846  -0.850766  1.240487
H    -1.320850  -0.095653  -1.340950
H    -0.563387  -1.677971  -1.071095
H    0.448726  -0.248373  -1.418611
N    -1.216082  0.405851  1.181852
C    -1.363992  0.797438  2.594174
C    -2.899845  0.670669  2.831396
O    -3.619952  1.299597  2.039098
H    -1.994206  0.774061  0.616655
H    -0.759459  0.131063  3.217570
C    -0.977193  2.292576  2.762417
C    -1.538055  2.927153  4.043537
C    -1.553936  4.462722  4.041732
N    -2.210887  5.133946  2.892395
C    -3.545912  5.256272  2.685553
N    -4.037344  6.426997  2.270611
N    -4.363698  4.212011  2.876998
H    -1.378111  2.832190  1.891459
H    0.117108  2.385926  2.721839
H    -0.947166  2.624606  4.920614
H    -2.557129  2.568828  4.242604
H    -0.526984  4.847698  4.037570
H    -2.019598  4.805894  4.976734
H    -1.667171  5.897672  2.500800
H    -4.962351  6.499038  1.857750
H    -3.531695  7.295905  2.410578
H    -5.368426  4.357865  2.868676
H    -4.048249  3.257808  2.697630
N    -3.356985  -0.062014  3.850740
C    -2.598016  -0.807516  4.858570
H    -4.374541  -0.094443  3.913811
H    -3.300532  -1.154248  5.621867
H    -1.857198  -0.170362  5.356602
H    -2.111650  -1.692296  4.427159
Pb    2.425151  -2.105224  1.123817
