37
Energy: -611340.296409 eV PBE+vdW (tier 2 basis)
C    -2.502161  2.619302  4.157815
C    -2.168074  1.378367  3.406647
O    -2.200948  1.388826  2.128104
H    -2.434811  2.505206  5.244797
H    -3.515015  2.950709  3.888509
H    -1.818650  3.418379  3.833077
N    -1.812731  0.279359  4.086143
C    -1.332459  -0.996030  3.521407
C    -2.546234  -1.811715  3.010427
O    -3.068516  -1.509967  1.878898
H    -1.848305  0.347481  5.101813
H    -0.752329  -0.750028  2.618343
C    -0.412904  -1.727966  4.520039
C    0.947610  -1.041905  4.762202
C    1.790053  -1.814270  5.798776
N    3.051747  -1.142275  6.125138
C    4.293544  -1.675651  6.084916
N    4.581390  -2.703324  5.277729
N    5.250471  -1.156403  6.859002
H    -0.237811  -2.739910  4.124414
H    -0.935566  -1.854031  5.485062
H    0.799561  -0.011574  5.121342
H    1.503397  -0.964955  3.815765
H    2.015189  -2.828447  5.445397
H    1.218364  -1.937317  6.732365
H    2.975175  -0.275912  6.650803
H    5.457448  -3.206690  5.372368
H    4.015037  -2.925268  4.469599
H    5.035432  -0.586200  7.669842
H    6.231613  -1.356494  6.691412
N    -3.037812  -2.796508  3.730372
C    -4.194459  -3.631075  3.377512
H    -2.582379  -3.006816  4.616511
H    -4.411441  -3.526957  2.312485
H    -5.066507  -3.321888  3.968534
H    -3.956528  -4.674651  3.610231
Pb    -3.034386  0.205601  0.421204
