37
Energy: -611340.145723 eV PBE+vdW (tier 2 basis)
C    -1.243931  -0.942128  -0.362065
C    -0.829129  -0.883382  1.065736
O    0.401695  -0.706128  1.358071
H    -2.320756  -1.085486  -0.499600
H    -0.701255  -1.755153  -0.865547
H    -0.934693  -0.009837  -0.857781
N    -1.758610  -0.999572  2.027389
C    -1.509597  -0.869663  3.471352
C    -0.731561  -2.109699  3.987072
O    0.545493  -1.998227  4.107799
H    -2.717933  -1.152228  1.722263
H    -0.787461  -0.048875  3.595924
C    -2.785774  -0.490958  4.253681
C    -3.184602  0.991170  4.106437
C    -4.441819  1.319238  4.932456
N    -4.818240  2.727393  4.784747
C    -5.545794  3.443298  5.670428
N    -6.127243  2.848392  6.717659
N    -5.657345  4.765223  5.506924
H    -2.597909  -0.714219  5.314751
H    -3.622956  -1.136625  3.950892
H    -3.372736  1.228576  3.046752
H    -2.358392  1.636930  4.439850
H    -4.239880  1.132995  5.997397
H    -5.274472  0.663737  4.625120
H    -4.678952  3.157155  3.875161
H    -6.534607  3.400829  7.465692
H    -6.350093  1.860704  6.715359
H    -6.355226  5.302027  6.011707
H    -5.038602  5.283611  4.893838
N    -1.286244  -3.262135  4.303134
C    -2.684844  -3.706054  4.251783
H    -0.615901  -3.956938  4.642930
H    -2.683021  -4.796303  4.154419
H    -3.200220  -3.288274  3.382352
H    -3.212429  -3.440303  5.176100
Pb    2.116042  -1.136090  2.746816
