37
Energy: -611340.134877 eV PBE+vdW (tier 2 basis)
C    0.945159  -1.500837  2.048061
C    0.515095  -0.074431  2.068676
O    1.405459  0.841597  2.017070
H    1.638434  -1.671276  2.885139
H    1.516891  -1.694401  1.129000
H    0.116189  -2.213235  2.113656
N    -0.794823  0.198143  2.156619
C    -1.500452  1.496871  2.289947
C    -1.344322  2.355462  1.016991
O    -0.258138  2.979779  0.750109
H    -1.396228  -0.622566  2.155171
H    -2.560500  1.214069  2.348055
C    -1.139170  2.282501  3.573074
C    -1.577961  1.630493  4.904862
C    -2.995528  2.014916  5.366679
N    -3.289884  1.415804  6.670819
C    -4.075332  1.943982  7.634714
N    -4.037621  1.424677  8.865240
N    -4.867461  2.990723  7.374882
H    -1.577174  3.288245  3.481072
H    -0.052467  2.431910  3.608674
H    -0.871361  1.946223  5.684218
H    -1.485470  0.534254  4.839693
H    -3.755110  1.708215  4.626729
H    -3.056267  3.107215  5.476026
H    -2.941729  0.477816  6.845663
H    -3.278307  0.826732  9.171904
H    -4.757187  1.635355  9.549535
H    -5.331254  3.486752  8.129649
H    -5.190929  3.194101  6.437288
N    -2.387343  2.467291  0.218392
C    -2.444408  3.253858  -1.020384
H    -3.231673  1.953587  0.464606
H    -2.325738  2.589641  -1.886783
H    -1.652978  4.006452  -1.016037
H    -3.423059  3.742140  -1.078160
Pb    1.950647  2.787939  1.079149
