37
Energy: -611338.944969 eV PBE+vdW (tier 2 basis)
C    0.529089  1.163993  -0.060018
C    0.400679  0.788250  1.367242
O    1.437043  0.771533  2.121964
H    0.979636  2.160516  -0.169899
H    -0.406914  1.093406  -0.620903
H    1.254930  0.463258  -0.508912
N    -0.785229  0.422422  1.909291
C    -2.015298  1.217167  1.790424
C    -1.717314  2.547858  2.533827
O    -0.816727  2.563429  3.457969
H    -0.687401  -0.030546  2.819834
H    -2.198025  1.428922  0.728089
C    -3.196963  0.382835  2.360226
C    -4.608554  0.909379  2.046959
C    -5.737389  -0.129275  2.167674
N    -6.070794  -0.484258  3.554008
C    -6.855163  -1.537666  3.892663
N    -7.096000  -1.784329  5.184359
N    -7.353551  -2.348502  2.955837
H    -3.057314  0.253066  3.444865
H    -3.078618  -0.612658  1.905867
H    -4.650387  1.244422  1.000522
H    -4.852482  1.791739  2.658792
H    -5.442464  -1.048860  1.641189
H    -6.623851  0.281323  1.657126
H    -6.056987  0.274190  4.230732
H    -6.579950  -1.322387  5.923609
H    -7.814138  -2.441379  5.471609
H    -7.440145  -2.062252  1.988112
H    -7.818580  -3.214225  3.211247
N    -2.339940  3.673132  2.243000
C    -3.326071  3.980782  1.201409
H    -2.055605  4.467461  2.822434
H    -3.028693  4.916838  0.714641
H    -4.318583  4.119317  1.646998
H    -3.367180  3.190242  0.448605
Pb    1.350839  2.027867  4.010192
