37
Energy: -611340.230764 eV PBE+vdW (tier 2 basis)
C    -1.935526  0.879283  1.219879
C    -1.128001  0.300269  2.330682
O    -0.422282  -0.743448  2.106177
H    -2.546229  1.737621  1.518727
H    -2.585812  0.093748  0.808235
H    -1.263384  1.182793  0.403810
N    -1.179722  0.887631  3.533015
C    -0.570537  0.493812  4.826891
C    0.968963  0.574317  4.790856
O    1.686435  -0.290085  4.173378
H    -1.762746  1.721100  3.570224
H    -0.902625  1.281793  5.517004
C    -1.082740  -0.851554  5.396384
C    -2.554314  -0.795402  5.851197
C    -3.018295  -2.121941  6.486600
N    -4.439991  -2.119390  6.845394
C    -4.973704  -2.319862  8.070689
N    -6.231173  -2.759664  8.169896
N    -4.267007  -2.080262  9.181844
H    -0.437012  -1.104354  6.252003
H    -0.945257  -1.653499  4.656547
H    -3.204831  -0.565422  4.993311
H    -2.691853  0.022208  6.575777
H    -2.433133  -2.355705  7.385351
H    -2.850285  -2.956183  5.787943
H    -5.100233  -2.167197  6.074559
H    -6.705133  -3.211563  7.395356
H    -6.745947  -2.695153  9.042568
H    -4.604649  -2.390352  10.087238
H    -3.463322  -1.466370  9.183168
N    1.543872  1.546958  5.470178
C    2.988729  1.776018  5.595596
H    0.939842  2.214120  5.947716
H    3.291440  2.597331  4.932505
H    3.530692  0.864938  5.333546
H    3.208402  2.056705  6.631435
Pb    1.596371  -1.638241  2.392319
