37
Energy: -611339.580863 eV PBE+vdW (tier 2 basis)
C    0.832953  0.762775  0.143821
C    0.344527  -0.398799  0.938523
O    1.063499  -1.455154  0.998282
H    1.807327  1.087953  0.536244
H    0.144176  1.613965  0.136283
H    1.009772  0.430883  -0.890180
N    -0.840642  -0.299896  1.554683
C    -1.634839  -1.305598  2.301140
C    -0.899437  -1.774336  3.571716
O    0.031820  -2.658582  3.521619
H    -1.305458  0.596954  1.428356
H    -2.511188  -0.739597  2.639790
C    -2.160434  -2.463080  1.419346
C    -3.228156  -3.308822  2.138831
C    -3.907424  -4.396489  1.289291
N    -4.899872  -3.847039  0.354428
C    -5.500690  -4.563891  -0.626691
N    -6.368334  -3.956691  -1.441728
N    -5.203751  -5.854192  -0.808344
H    -1.331198  -3.102657  1.084330
H    -2.578654  -1.999982  0.513841
H    -4.005707  -2.654209  2.567418
H    -2.778525  -3.829715  2.997205
H    -4.387974  -5.108964  1.979322
H    -3.155003  -4.948005  0.706045
H    -5.422163  -3.036195  0.675234
H    -6.972786  -4.487532  -2.060660
H    -6.460604  -2.948026  -1.471526
H    -5.550098  -6.356359  -1.620116
H    -4.807391  -6.420413  -0.067934
N    -1.252724  -1.299223  4.749859
C    -2.282412  -0.304998  5.094511
H    -0.730395  -1.694705  5.535774
H    -3.286752  -0.741896  5.027830
H    -2.204508  0.583506  4.458875
H    -2.110825  0.004505  6.129723
Pb    1.852879  -3.083492  2.280860
