37
Energy: -611340.124699 eV PBE+vdW (tier 2 basis)
C    -0.214414  0.736437  0.560285
C    -0.547146  0.225658  1.920102
O    -0.488509  -1.032274  2.140246
H    -0.317575  1.821781  0.458148
H    -0.867290  0.238383  -0.171831
H    0.814726  0.445286  0.304659
N    -0.911853  1.106351  2.863164
C    -1.390466  0.889257  4.251131
C    -0.279056  0.305276  5.148944
O    0.077054  -0.922694  5.073315
H    -0.884800  2.078033  2.562810
H    -1.590892  1.904444  4.620349
C    -2.700448  0.071836  4.346180
C    -3.954749  0.736373  3.735150
C    -4.739090  1.644808  4.698481
N    -5.988165  2.077842  4.063854
C    -6.794809  3.071019  4.496679
N    -7.805379  3.477820  3.723697
N    -6.566355  3.669423  5.672339
H    -2.873199  -0.157074  5.409086
H    -2.553350  -0.897268  3.852602
H    -4.623044  -0.077541  3.416884
H    -3.698593  1.292259  2.820498
H    -4.161052  2.543152  4.965078
H    -4.951181  1.087820  5.627258
H    -6.371625  1.475676  3.341072
H    -7.868573  3.222407  2.744518
H    -8.550799  4.060346  4.091510
H    -7.087281  4.499722  5.937090
H    -6.067066  3.198660  6.416927
N    0.274029  1.101312  6.042637
C    1.319596  0.723118  7.002544
H    -0.032389  2.072163  6.068787
H    1.107909  1.212712  7.959064
H    2.298326  1.061574  6.637314
H    1.324830  -0.361241  7.132979
Pb    0.202681  -2.587854  3.578454
