37
Energy: -611338.654052 eV PBE+vdW (tier 2 basis)
C    -3.327466  2.116607  2.842462
C    -1.999655  1.572473  2.452676
O    -0.961881  2.361204  2.337460
H    -3.221471  3.095568  3.318849
H    -3.860457  1.442957  3.525088
H    -3.954360  2.239845  1.943469
N    -1.818239  0.287267  2.197719
C    -2.842920  -0.782234  2.185060
C    -3.255882  -1.302762  3.595802
O    -4.433744  -1.652481  3.733546
H    -0.872771  0.012877  1.918027
H    -3.763784  -0.352681  1.771299
C    -2.326881  -1.923742  1.275081
C    -3.118548  -3.246104  1.237669
C    -4.508063  -3.259148  0.574190
N    -5.594315  -2.992736  1.520103
C    -6.850015  -3.454292  1.399408
N    -7.676136  -3.378478  2.453198
N    -7.284187  -3.986525  0.251190
H    -1.305372  -2.180716  1.602936
H    -2.238777  -1.523283  0.253317
H    -3.183168  -3.699160  2.237431
H    -2.491725  -3.933335  0.653028
H    -4.665744  -4.261364  0.150539
H    -4.540342  -2.544907  -0.266782
H    -5.350342  -2.484469  2.380827
H    -8.666240  -3.577965  2.365930
H    -7.321496  -3.200974  3.385302
H    -8.174463  -4.469551  0.199768
H    -6.776232  -3.876813  -0.617133
N    -2.327899  -1.375925  4.558226
C    -2.596699  -1.941219  5.886810
H    -1.363256  -1.157343  4.331190
H    -1.918876  -1.481401  6.612183
H    -2.442159  -3.027915  5.886797
H    -3.632900  -1.727365  6.163946
Pb    0.238389  4.150684  2.228341
