37
Energy: -611338.829337 eV PBE+vdW (tier 2 basis)
C    -1.103646  3.100533  0.352333
C    -1.258660  2.253765  1.563461
O    -0.543209  2.563595  2.636869
H    -0.040228  3.168886  0.083874
H    -1.451880  4.121520  0.569536
H    -1.660663  2.715519  -0.505894
N    -2.050313  1.224796  1.655023
C    -3.065628  0.694201  0.726039
C    -4.079195  0.081866  1.751232
O    -3.582860  -0.332693  2.811445
H    -2.161414  0.672435  2.546953
H    -3.491577  1.514166  0.135949
C    -2.452642  -0.402860  -0.188809
C    -3.448611  -0.993064  -1.201403
C    -2.855804  -2.003846  -2.193939
N    -2.606935  -3.315959  -1.579354
C    -1.989642  -4.343138  -2.202561
N    -1.795679  -5.492282  -1.544866
N    -1.540691  -4.208161  -3.454295
H    -2.033241  -1.188190  0.457558
H    -1.607334  0.048201  -0.731305
H    -3.876718  -0.184828  -1.811674
H    -4.300830  -1.461146  -0.684948
H    -1.906972  -1.625266  -2.603170
H    -3.567152  -2.108902  -3.029414
H    -3.195661  -3.569047  -0.791120
H    -1.503131  -6.334755  -2.027931
H    -1.954071  -5.570373  -0.547580
H    -0.970842  -4.929162  -3.884267
H    -1.877789  -3.475115  -4.066095
N    -5.384302  0.008558  1.469122
C    -6.151491  0.561689  0.354441
H    -5.926507  -0.424984  2.218039
H    -6.622566  -0.240958  -0.226957
H    -5.515516  1.151596  -0.310750
H    -6.940561  1.216539  0.743514
Pb    0.521103  3.428133  4.240690
