37
Energy: -611338.954210 eV PBE+vdW (tier 2 basis)
C    -2.244699  1.294672  -0.117032
C    -1.123108  1.059071  0.830913
O    0.040252  1.522088  0.560428
H    -3.205748  1.406665  0.392047
H    -2.319173  0.454516  -0.828620
H    -2.024856  2.191625  -0.708235
N    -1.280522  0.354818  1.973260
C    -1.964524  -0.953068  2.058588
C    -1.302676  -1.869671  0.987012
O    -0.149246  -1.571928  0.507987
H    -0.484352  0.443340  2.605262
H    -1.619287  -1.365535  3.021412
C    -3.509703  -0.931328  2.132028
C    -4.015045  -0.028651  3.278203
C    -5.429081  -0.316076  3.807774
N    -6.502514  0.136671  2.910970
C    -7.808554  -0.191210  3.077568
N    -8.713969  0.271881  2.210016
N    -8.188877  -1.000104  4.070082
H    -3.834502  -1.962935  2.342234
H    -3.953386  -0.657587  1.165640
H    -3.926860  1.033738  3.002166
H    -3.352871  -0.153398  4.148395
H    -5.520197  0.180253  4.787960
H    -5.551339  -1.397522  3.968179
H    -6.343515  1.017324  2.428795
H    -9.709157  0.200113  2.395874
H    -8.444847  0.711366  1.337795
H    -9.138907  -1.355805  4.115570
H    -7.618766  -1.140661  4.895496
N    -1.897249  -2.983618  0.618431
C    -1.321092  -3.980119  -0.298936
H    -2.809507  -3.191928  1.016987
H    -2.006959  -4.828951  -0.356346
H    -0.350422  -4.320882  0.079377
H    -1.195157  -3.548102  -1.298810
Pb    1.573386  -0.100403  0.139046
