37
Energy: -611340.208319 eV PBE+vdW (tier 2 basis)
C    -1.242585  1.043885  0.959652
C    -0.608880  0.631810  2.241964
O    0.527146  1.120068  2.567160
H    -1.349761  2.139046  0.958839
H    -2.220985  0.583673  0.786698
H    -0.572282  0.798367  0.123631
N    -1.255297  -0.225335  3.045090
C    -0.844267  -0.645921  4.397130
C    0.258210  -1.727467  4.283195
O    1.462891  -1.364484  4.038617
H    -2.140086  -0.589227  2.696325
H    -0.342792  0.218348  4.860461
C    -2.064746  -1.011033  5.268482
C    -2.950140  0.201559  5.629070
C    -3.929924  -0.030740  6.799061
N    -5.134297  -0.813741  6.490675
C    -6.408821  -0.361120  6.564984
N    -7.402434  -1.232773  6.762902
N    -6.688071  0.938086  6.422709
H    -1.671563  -1.448101  6.199392
H    -2.666875  -1.793766  4.774709
H    -3.503722  0.561943  4.749347
H    -2.295926  1.029042  5.945137
H    -4.251319  0.941976  7.190956
H    -3.410904  -0.525538  7.633879
H    -5.042914  -1.824576  6.509870
H    -8.372048  -0.968755  6.617983
H    -7.238963  -2.152320  7.158142
H    -7.605116  1.303493  6.658721
H    -6.023062  1.594471  6.035149
N    -0.037032  -3.000662  4.433308
C    0.906251  -4.122879  4.333779
H    -1.005360  -3.238621  4.637684
H    1.929589  -3.748980  4.405478
H    0.764436  -4.640890  3.376283
H    0.706570  -4.822213  5.152881
Pb    2.539077  0.478376  3.312657
