37
Energy: -611339.867306 eV PBE+vdW (tier 2 basis)
C    1.915298  0.651003  0.692588
C    0.862430  -0.340998  1.049192
O    0.952174  -1.532249  0.592420
H    1.973135  0.722038  -0.403997
H    2.894286  0.280797  1.029766
H    1.743126  1.648479  1.110344
N    -0.155338  0.056346  1.825934
C    -1.389594  -0.655015  2.244570
C    -1.068792  -1.826872  3.195306
O    -0.550741  -2.920061  2.774394
H    -0.086019  1.020103  2.145001
H    -1.929022  0.094076  2.840937
C    -2.307806  -1.079154  1.072391
C    -2.806627  0.091607  0.194197
C    -4.100933  0.804603  0.620229
N    -5.295785  0.034377  0.244902
C    -6.567030  0.396651  0.541541
N    -7.576574  -0.397039  0.173144
N    -6.811868  1.514469  1.233305
H    -3.155379  -1.634541  1.502164
H    -1.771904  -1.792830  0.433219
H    -2.931943  -0.271620  -0.836760
H    -2.023833  0.859084  0.113333
H    -4.115084  1.790987  0.128290
H    -4.126902  0.975960  1.708060
H    -5.196814  -0.590413  -0.550482
H    -8.540116  -0.080180  0.211233
H    -7.421260  -1.336876  -0.172853
H    -7.750985  1.728987  1.554516
H    -6.144644  2.275828  1.267111
N    -1.381795  -1.689722  4.468837
C    -1.176309  -2.695403  5.519283
H    -1.785325  -0.803110  4.765988
H    -2.036781  -2.672927  6.196348
H    -0.268387  -2.456431  6.088979
H    -1.083315  -3.685781  5.068258
Pb    0.814012  -3.677942  1.163606
