37
Energy: -611338.735168 eV PBE+vdW (tier 2 basis)
C    -0.503320  -2.316699  0.223608
C    -0.524622  -1.924052  1.659490
O    0.416526  -2.409080  2.450222
H    0.451073  -2.033349  -0.235070
H    -1.307662  -1.866276  -0.362445
H    -0.614714  -3.411932  0.170595
N    -1.567672  -1.359367  2.267755
C    -2.334962  -0.301995  1.613608
C    -1.231470  0.740689  1.148224
O    -0.061713  0.342322  1.077034
H    -1.472944  -1.275759  3.281643
H    -2.766075  -0.711087  0.687082
C    -3.486513  0.199095  2.519748
C    -4.754864  0.614621  1.746613
C    -6.011844  0.802976  2.618801
N    -6.081251  2.056124  3.382122
C    -6.990920  3.039597  3.205648
N    -7.246339  3.884456  4.211050
N    -7.622272  3.195374  2.037454
H    -3.124278  1.010275  3.169812
H    -3.764817  -0.636275  3.180311
H    -4.998592  -0.180719  1.025415
H    -4.593546  1.525840  1.148602
H    -6.103497  -0.029286  3.332706
H    -6.904935  0.743884  1.984731
H    -5.574271  2.091338  4.260801
H    -7.762620  4.744594  4.058100
H    -7.028615  3.651225  5.173312
H    -8.435617  3.796875  1.959698
H    -7.314648  2.733472  1.191812
N    -1.639032  1.963200  0.809254
C    -0.735627  3.002383  0.299621
H    -2.618350  2.200781  0.916273
H    -0.328472  3.602885  1.122754
H    -1.293180  3.651531  -0.382319
H    0.088345  2.528385  -0.241152
Pb    2.367550  -3.162161  2.784104
