37
Energy: -611339.363079 eV PBE+vdW (tier 2 basis)
C    0.495262  1.242719  0.280466
C    0.127534  0.864608  1.674730
O    1.052298  0.527862  2.496775
H    1.109353  0.455626  -0.177015
H    1.131565  2.140882  0.330611
H    -0.365115  1.456188  -0.362405
N    -1.163290  0.909533  2.027974
C    -1.821551  0.896842  3.350031
C    -1.274328  -0.135875  4.334811
O    -0.671214  -1.203815  3.944019
H    -1.777183  1.234567  1.283690
H    -1.652184  1.889546  3.799023
C    -3.363028  0.748195  3.161239
C    -3.854257  -0.584246  2.569377
C    -5.377363  -0.798322  2.632462
N    -6.129931  0.071520  1.717469
C    -7.465476  0.292149  1.802351
N    -8.040319  1.146498  0.950397
N    -8.198827  -0.303652  2.747080
H    -3.692309  1.603515  2.550561
H    -3.825046  0.908955  4.145239
H    -3.416185  -1.427689  3.123642
H    -3.510278  -0.711510  1.530319
H    -5.733618  -0.600827  3.654047
H    -5.578847  -1.857571  2.404755
H    -5.731943  0.211672  0.792729
H    -7.495548  1.785938  0.383648
H    -9.049449  1.198312  0.853700
H    -9.162876  -0.027003  2.906502
H    -7.899203  -1.161172  3.195243
N    -1.474676  0.050476  5.629724
C    -2.109181  1.160586  6.353156
H    -1.163191  -0.729139  6.213158
H    -1.567739  1.307662  7.293939
H    -3.153831  0.918376  6.587261
H    -2.063503  2.089675  5.777914
Pb    1.532336  -1.421503  3.457973
