37
Energy: -611337.825022 eV PBE+vdW (tier 2 basis)
C    0.121141  1.565189  -0.036277
C    -0.054618  1.250222  1.403822
O    0.949675  1.436412  2.232913
H    0.430908  2.616293  -0.137138
H    -0.786590  1.422064  -0.628383
H    0.925781  0.942763  -0.455776
N    -1.180440  0.796563  1.920974
C    -2.439642  0.456601  1.217845
C    -3.287194  1.702317  0.799248
O    -3.667050  1.713036  -0.377443
H    -1.176314  0.648868  2.933604
H    -2.152499  0.036404  0.249580
C    -3.210045  -0.631018  2.020866
C    -4.753181  -0.614175  2.038252
C    -5.560862  -0.677681  0.732943
N    -5.203143  -1.787205  -0.162667
C    -5.118389  -1.689848  -1.508531
N    -5.356247  -2.772986  -2.258497
N    -4.755369  -0.542347  -2.091386
H    -2.903784  -0.574915  3.077711
H    -2.851702  -1.605703  1.662820
H    -5.119200  0.273457  2.575396
H    -5.043330  -1.464305  2.673719
H    -5.482791  0.254175  0.168097
H    -6.621581  -0.777143  1.009057
H    -5.390181  -2.722356  0.191109
H    -5.122141  -2.793646  -3.245161
H    -5.876543  -3.565593  -1.898957
H    -4.910312  -0.401901  -3.083454
H    -4.406966  0.252965  -1.553306
N    -3.593337  2.667942  1.679152
C    -3.302571  2.752348  3.107729
H    -4.145961  3.424017  1.274481
H    -4.053707  3.397930  3.574407
H    -2.315775  3.195369  3.302419
H    -3.380111  1.773333  3.595583
Pb    2.948478  1.832709  2.908131
