37
Energy: -611339.049799 eV PBE+vdW (tier 2 basis)
C    0.553632  0.053653  0.145314
C    0.237032  0.090490  1.593977
O    1.181333  0.013131  2.455991
H    1.176486  0.914387  -0.140386
H    -0.329047  -0.006165  -0.497005
H    1.183491  -0.834231  -0.028834
N    -1.035515  0.182987  2.046741
C    -1.992357  1.187888  1.567128
C    -1.419514  2.569761  1.994930
O    -0.490976  2.629228  2.885356
H    -1.117690  0.000952  3.049304
H    -2.035114  1.144571  0.469414
C    -3.388658  0.934011  2.186597
C    -4.067115  -0.403961  1.812593
C    -5.009455  -0.332588  0.597866
N    -5.672208  -1.623581  0.393841
C    -6.930766  -1.818699  -0.054816
N    -7.615461  -0.821414  -0.627742
N    -7.500699  -3.017679  0.097768
H    -4.043908  1.778482  1.932282
H    -3.278187  0.981191  3.281032
H    -4.657558  -0.731534  2.678912
H    -3.303775  -1.181785  1.650283
H    -4.464861  -0.035375  -0.314925
H    -5.789256  0.419228  0.785684
H    -5.122455  -2.462273  0.555391
H    -7.146730  -0.045092  -1.077859
H    -8.608957  -0.918137  -0.813104
H    -8.335714  -3.274812  -0.418952
H    -7.140521  -3.702923  0.752709
N    -1.870928  3.691944  1.473457
C    -2.899420  3.902951  0.450816
H    -1.443272  4.539907  1.854710
H    -3.829757  4.250187  0.919128
H    -3.086145  2.986120  -0.114668
H    -2.546190  4.675656  -0.241304
Pb    1.385057  1.772765  3.881517
