37
Energy: -611338.062579 eV PBE+vdW (tier 2 basis)
C    -2.927483  -0.172742  0.257824
C    -1.856210  -0.277667  1.298875
O    -0.648922  -0.160181  1.050952
H    -3.932972  -0.395708  0.630427
H    -2.686372  -0.853978  -0.568920
H    -2.919268  0.843298  -0.161205
N    -2.266791  -0.522609  2.595689
C    -1.304955  -0.578398  3.688283
C    -1.513085  -1.897663  4.443063
O    -2.007544  -1.901772  5.660430
H    -3.262198  -0.493061  2.799596
H    -0.326998  -0.672053  3.183547
C    -1.287784  0.669182  4.589355
C    -0.979557  2.012439  3.889361
C    0.484819  2.349971  3.545128
N    0.912252  1.853528  2.237705
C    1.878652  2.399278  1.477366
N    2.010645  1.981718  0.210418
N    2.694181  3.342755  1.959374
H    -0.556190  0.508475  5.397449
H    -2.275165  0.773454  5.066062
H    -1.308928  2.794721  4.586146
H    -1.611997  2.144221  2.999283
H    1.157249  1.976726  4.337576
H    0.572896  3.446408  3.539781
H    0.383025  1.080203  1.811581
H    1.313403  1.382685  -0.217130
H    2.796982  2.263387  -0.364340
H    2.743550  3.557129  2.946918
H    3.346960  3.831749  1.356306
N    -1.226797  -3.052807  3.889389
C    -0.684221  -3.324927  2.551884
H    -1.446429  -3.882656  4.444323
H    -1.507912  -3.577279  1.870023
H    -0.010284  -4.184984  2.629160
H    -0.137453  -2.462600  2.162206
Pb    -2.717175  -2.024732  7.676294
