37
Energy: -611339.058041 eV PBE+vdW (tier 2 basis)
C    -3.446407  -0.215088  -1.972911
C    -2.573445  0.499704  -1.011705
O    -2.175760  1.692150  -1.272184
H    -2.927252  -0.201291  -2.946654
H    -4.387510  0.329735  -2.136369
H    -3.644835  -1.255789  -1.701243
N    -2.142068  -0.079544  0.133055
C    -3.052455  -0.735233  1.075736
C    -3.663462  0.409386  1.944234
O    -3.436914  1.641206  1.662132
H    -1.383213  0.437825  0.578865
H    -3.897333  -1.126077  0.487026
C    -2.432817  -1.942758  1.813155
C    -1.155096  -1.715412  2.639663
C    -0.743067  -3.024994  3.344956
N    0.475540  -2.889822  4.150338
C    1.516149  -3.754800  4.192036
N    1.819500  -4.527045  3.143380
N    2.263200  -3.820789  5.297721
H    -2.242310  -2.699454  1.037706
H    -3.214056  -2.387596  2.450498
H    -1.315881  -0.931554  3.397825
H    -0.326071  -1.381320  1.997352
H    -0.590154  -3.822562  2.607760
H    -1.559708  -3.368802  4.000009
H    0.418022  -2.257234  4.943732
H    2.487385  -5.285822  3.233209
H    1.495077  -4.316661  2.208629
H    1.927117  -3.485200  6.193778
H    3.175308  -4.266810  5.292845
N    -4.461717  0.093241  2.941795
C    -5.193211  1.049932  3.786157
H    -4.639294  -0.895188  3.110475
H    -5.483654  0.541753  4.709821
H    -6.097462  1.396108  3.268554
H    -4.552722  1.904830  4.021463
Pb    -2.728736  3.293878  0.227223
