24
Energy: -169214.84663 eV PBE+vdW (tier 2 basis)
N    0.163829  1.072978  0.064995
C    0.171899  0.495742  1.340238
C    1.682627  0.006663  1.739695
O    2.328690  0.836267  2.429235
H    0.440867  2.046796  -0.022872
H    0.369110  0.503538  -0.750918
H    -0.037952  1.269750  2.086304
C    -0.847820  -0.664281  1.570073
C    -1.008390  -1.689286  0.486841
C    -1.753727  -1.431654  -0.649413
C    -0.406577  -3.027321  0.643586
C    -1.935518  -2.429564  -1.627987
C    -0.636565  -4.025251  -0.404872
C    -1.381603  -3.721197  -1.516825
H    -1.814246  -0.153086  1.699787
H    -0.607462  -1.142678  2.528295
H    -2.235414  -0.463108  -0.786883
H    -0.681389  -3.463345  1.629104
H    -2.543878  -2.193109  -2.503581
H    -0.205508  -5.018821  -0.271701
H    -1.560680  -4.460662  -2.295979
O    2.120218  -1.093759  1.323862
H    0.691664  -2.899871  0.798617
Cd    4.181824  -0.447746  2.363400
