24
Energy: -169215.525838 eV PBE+vdW (tier 2 basis)
N    -0.245316  0.589193  0.199378
C    0.082399  0.013688  1.565674
C    1.544849  -0.474211  1.539947
O    1.964459  -1.167464  2.510308
H    -0.933929  1.351522  0.260013
H    -0.652514  -0.164173  -0.393160
H    0.064004  0.849876  2.282115
C    -0.956785  -1.052420  1.976468
C    -1.185118  -2.126546  0.944354
C    -0.432356  -3.325947  0.969771
C    -2.152544  -1.947212  -0.063478
C    -0.625581  -4.301676  -0.001400
C    -2.342086  -2.923943  -1.040332
C    -1.575392  -4.104240  -1.011436
H    -1.900214  -0.523385  2.182846
H    -0.610261  -1.474729  2.929238
H    0.272828  -3.499247  1.783673
H    -2.811824  -1.075196  -0.046347
H    -0.060576  -5.231963  0.038193
H    -3.101104  -2.787989  -1.809806
H    -1.745404  -4.876981  -1.760326
O    2.276840  -0.096158  0.571718
H    0.615628  0.937777  -0.254677
Cd    4.048998  -1.133575  1.629262
