24
Energy: -169214.679418 eV PBE+vdW (tier 2 basis)
N    -1.082444  -0.484451  0.185950
C    -0.441315  -0.612389  1.404446
C    1.172169  -0.434414  1.377577
O    1.730366  -0.012235  0.365795
H    -1.399859  0.417365  -0.151767
H    -1.141628  -1.259722  -0.466849
H    -0.714419  0.243476  2.051136
C    -0.773190  -1.978125  2.144273
C    -0.508625  -1.951413  3.616777
C    -1.314900  -1.137087  4.464369
C    0.502712  -2.753936  4.196305
C    -1.114594  -1.131764  5.835872
C    0.694489  -2.749713  5.575364
C    -0.107585  -1.931686  6.396824
H    -0.258799  -2.810945  1.646893
H    -1.851490  -2.104485  1.975169
H    -2.120543  -0.539831  4.034086
H    1.088854  -3.428789  3.569471
H    -1.746838  -0.521165  6.478939
H    1.446700  -3.397356  6.024211
H    0.047264  -1.934606  7.475513
O    1.837154  -0.664744  2.475493
H    1.295396  -1.108712  3.198761
Cd    3.989309  0.353084  0.261334
