24
Energy: -169216.088496 eV PBE+vdW (tier 2 basis)
N    0.427791  -0.694706  -0.004715
C    -0.215510  -0.296025  1.309031
C    0.890997  0.072208  2.299206
O    0.580142  0.906226  3.206202
H    1.271839  -1.260802  0.200905
H    0.733436  0.129608  -0.544481
H    -0.879841  0.552552  1.116994
C    -0.995128  -1.526303  1.922047
C    -0.946571  -1.552004  3.440045
C    -1.833898  -0.784422  4.215759
C    0.075675  -2.255912  4.095943
C    -1.650761  -0.619288  5.593109
C    0.305598  -2.064146  5.493198
C    -0.563794  -1.212706  6.234717
H    -0.539138  -2.451841  1.540459
H    -2.030960  -1.490792  1.560796
H    -2.670470  -0.277327  3.732657
H    0.705875  -2.958038  3.547484
H    -2.352841  -0.011987  6.163019
H    1.005389  -2.718858  6.021356
H    -0.410116  -1.085068  7.306246
O    1.923604  -0.653875  2.307748
H    -0.208079  -1.240130  -0.605686
Cd    1.734761  -0.282360  4.681961
