24
Energy: -169214.531163 eV PBE+vdW (tier 2 basis)
N    -1.178657  -0.927987  0.139714
C    -0.574995  -0.626648  1.362247
C    0.926284  0.038887  1.110029
O    0.938171  1.144642  0.524852
H    -1.529901  -0.177244  -0.447493
H    -0.948155  -1.790573  -0.345502
H    -1.108542  0.210973  1.834057
C    -0.505597  -1.876506  2.253885
C    0.048657  -1.700090  3.700837
C    -0.673687  -0.765728  4.581447
C    0.456895  -2.973351  4.321213
C    -0.882280  -1.046255  5.908447
C    0.237347  -3.232086  5.652375
C    -0.437720  -2.277322  6.438474
H    0.104849  -2.640264  1.753048
H    -1.528077  -2.270823  2.324831
H    -1.025054  0.182247  4.170666
H    0.975661  -3.702380  3.695587
H    -1.402086  -0.337551  6.552062
H    0.566415  -4.169738  6.098700
H    -0.624963  -2.496234  7.491726
O    1.937662  -0.606732  1.483427
H    1.053598  -1.203904  3.556628
Cd    3.231176  1.084669  0.450740
