24
Energy: -169214.759288 eV PBE+vdW (tier 2 basis)
N    -0.109611  1.187322  0.277954
C    0.061320  0.435035  1.444136
C    1.544053  -0.134281  1.485122
O    2.371085  0.504272  2.147791
H    -0.034518  2.199563  0.302765
H    -0.130631  0.755277  -0.641061
H    -0.012187  1.091229  2.318494
C    -0.962273  -0.767958  1.649390
C    -1.070334  -1.761317  0.543532
C    -1.790825  -1.457228  -0.641733
C    -0.495400  -3.054514  0.681306
C    -1.925443  -2.403004  -1.645712
C    -0.626525  -3.998076  -0.331298
C    -1.334674  -3.672581  -1.501355
H    -1.918742  -0.242725  1.793209
H    -0.696043  -1.250628  2.599407
H    -2.279303  -0.486923  -0.744421
H    -0.010517  -3.333950  1.619440
H    -2.496514  -2.170665  -2.543718
H    -0.208252  -4.996212  -0.208132
H    -1.439556  -4.412386  -2.294652
O    1.881304  -1.185195  0.791115
H    1.093588  -1.692053  0.432833
Cd    4.603633  0.007246  2.247576
