24
Energy: -169214.535257 eV PBE+vdW (tier 2 basis)
N    -0.904872  -0.638422  0.258376
C    -0.178425  -0.626275  1.441996
C    1.474349  -0.436657  1.240010
O    1.883077  0.031149  0.161040
H    -0.987214  -1.501655  -0.272465
H    -0.950862  0.204705  -0.306855
H    -0.383993  0.311352  1.986230
C    -0.465891  -1.882564  2.290567
C    -0.048076  -1.825669  3.786955
C    -0.726410  -0.836578  4.636264
C    0.200997  -3.135847  4.404767
C    -1.011390  -1.099498  5.954048
C    -0.093584  -3.376887  5.725781
C    -0.703877  -2.366098  6.493484
H    0.018313  -2.754798  1.829954
H    -1.548483  -2.057618  2.243902
H    -0.979026  0.137803  4.214714
H    0.670056  -3.910580  3.795255
H    -1.492395  -0.347646  6.578501
H    0.124859  -4.344665  6.175534
H    -0.950999  -2.570026  7.537155
O    2.200572  -0.723597  2.231440
H    1.015556  -1.417381  3.745981
Cd    4.040719  0.016451  0.939366
