24
Energy: -169214.981413 eV PBE+vdW (tier 2 basis)
N    0.373041  -2.029019  1.374743
C    0.484949  -0.771674  2.014409
C    1.663336  0.120040  1.345338
O    2.857055  -0.131201  1.650724
H    1.150893  -2.678576  1.477542
H    -0.028801  -2.039913  0.440021
H    -0.418566  -0.183411  1.812608
C    0.779578  -0.882207  3.522149
C    -0.222858  -1.629236  4.361797
C    -1.624891  -1.799974  3.933306
C    0.160812  -2.157794  5.579261
C    -2.556157  -2.476243  4.845358
C    -0.775214  -2.805825  6.406792
C    -2.130727  -2.967804  6.051608
H    0.853233  0.139211  3.937670
H    1.776251  -1.323119  3.672865
H    -1.613224  -2.372537  2.973017
H    1.193195  -2.071363  5.919382
H    -3.592973  -2.587482  4.524394
H    -0.432389  -3.201656  7.365019
H    -2.815749  -3.476796  6.727875
O    1.294790  0.991005  0.513091
H    -2.068100  -0.843500  3.587019
Cd    3.483516  1.473070  0.110010
