24
Energy: -169215.062563 eV PBE+vdW (tier 2 basis)
N    0.052853  -0.175645  0.142587
C    -0.040043  -0.024320  1.618261
C    1.353728  0.076930  2.259719
O    2.380373  -0.390733  1.734205
H    0.020509  0.734146  -0.331575
H    -0.761983  -0.724059  -0.185863
H    -0.601298  0.895767  1.846151
C    -0.790665  -1.248156  2.229410
C    -2.137817  -1.451521  1.576797
C    -2.292054  -2.394824  0.538014
C    -3.254811  -0.705974  1.992998
C    -3.532128  -2.572391  -0.086178
C    -4.492704  -0.887637  1.374512
C    -4.633865  -1.819433  0.332091
H    -0.899113  -1.085729  3.310613
H    -0.168094  -2.150258  2.109767
H    -1.460917  -3.050686  0.266357
H    -3.167134  0.004952  2.816203
H    -3.644396  -3.316580  -0.873509
H    -5.353999  -0.308634  1.705762
H    -5.605811  -1.966925  -0.137073
O    1.477255  0.604104  3.447291
H    0.652767  0.984614  3.812603
Cd    2.086795  -1.176367  -0.310279
