21
Energy: -175946.4981232  eV PBE+vdW (tier 2 basis)
N    0.658961  0.217871  0.193193
C    0.251869  0.176242  1.622724
C    1.482816  0.383475  2.534766
O    2.633095  0.535055  2.108638
H    -0.017539  0.750346  -0.363215
H    0.683487  -0.727297  -0.205286
H    -0.397180  1.050345  1.798385
C    -0.552231  -1.133433  1.904928
C    -1.302019  -1.198562  3.264896
S    -2.571349  -2.488833  3.273944
C    -1.663069  -3.982812  3.684192
H    0.117142  -2.001458  1.807259
H    -1.302743  -1.202441  1.105588
H    -1.862916  -0.269479  3.449034
H    -0.624845  -1.395525  4.109357
H    -1.176721  -3.882006  4.664163
H    -0.921513  -4.230414  2.912338
H    -2.413678  -4.781507  3.726145
O    1.313690  0.430706  3.835029
H    0.380923  0.354258  4.119877
Cd    2.884529  1.011700  -0.075748
