21
Energy: -175946.9857722  eV PBE+vdW (tier 2 basis)
N    -0.271751  -2.155921  0.494477
C    0.061752  -0.972967  1.396482
C    1.580405  -1.025598  1.667930
O    2.271509  -1.853205  1.000602
H    -0.566619  -2.980189  1.038007
H    0.594464  -2.421041  -0.014210
H    -0.109024  -0.071548  0.786297
C    -0.790413  -0.935584  2.669772
C    -2.302214  -0.768161  2.459828
S    -2.679155  0.758632  1.543571
C    -4.475989  0.777592  1.564165
H    -0.402939  -0.102973  3.272959
H    -0.613307  -1.846897  3.263739
H    -2.792210  -0.713979  3.443161
H    -2.760705  -1.621088  1.932591
H    -4.837211  0.849045  2.599597
H    -4.884253  -0.121804  1.084035
H    -4.778964  1.670012  1.005029
O    2.054690  -0.214914  2.512671
H    -1.016736  -1.933155  -0.179305
Cd    4.164669  -0.951258  2.097602
