21
Energy: -175946.4285608  eV PBE+vdW (tier 2 basis)
N    0.233912  -0.088928  -0.223058
C    -0.155174  0.105167  1.102748
C    0.832515  -0.519089  2.139063
O    0.778085  -0.213588  3.306649
H    0.562833  -0.994518  -0.549110
H    0.335009  0.693158  -0.863495
H    -0.213468  1.179818  1.320201
C    -1.608235  -0.529685  1.400980
C    -2.173637  -0.049865  2.749441
S    -3.885638  -0.681420  2.834703
C    -3.701214  -2.387726  3.427595
H    -1.526312  -1.623560  1.352676
H    -2.244158  -0.194522  0.572533
H    -2.259506  1.044350  2.780958
H    -1.603711  -0.390800  3.619879
H    -3.113091  -2.435592  4.349679
H    -3.221536  -2.963170  2.626061
H    -4.711908  -2.785241  3.578102
O    1.662212  -1.393397  1.576097
H    2.274820  -1.757512  2.251558
Cd    -5.240269  0.451480  4.846669
