21
Energy: -175946.9836367  eV PBE+vdW (tier 2 basis)
N    0.502875  -0.455019  -0.207804
C    0.074270  -0.128074  1.220088
C    1.352546  0.329698  1.974984
O    2.399396  0.504421  1.282075
H    -0.187437  -0.160339  -0.911072
H    0.674389  -1.463388  -0.331634
H    -0.564704  0.766129  1.150883
C    -0.671768  -1.281669  1.892362
C    -2.076457  -1.546493  1.297658
S    -2.913715  -2.948370  2.089397
C    -3.593753  -2.231302  3.588461
H    -0.759541  -1.012238  2.953220
H    -0.060084  -2.196616  1.854642
H    -2.029316  -1.834085  0.236985
H    -2.717632  -0.657064  1.380376
H    -4.291573  -1.418794  3.343844
H    -2.802374  -1.864562  4.256810
H    -4.134093  -3.043719  4.088865
O    1.265843  0.543753  3.212682
H    1.406399  0.032824  -0.376836
Cd    3.469431  1.194569  3.282892
