21
Energy: -175946.4890375  eV PBE+vdW (tier 2 basis)
N    0.682160  0.071581  0.100049
C    0.372107  0.056051  1.557580
C    1.672759  0.135490  2.385573
O    2.785976  -0.168252  1.941949
H    0.173441  -0.671027  -0.389716
H    0.383929  0.954982  -0.327830
H    -0.216926  0.958752  1.786816
C    -0.460139  -1.213798  1.910405
C    -1.045402  -1.249941  3.344451
S    -2.332589  -2.513203  3.528652
C    -1.409088  -4.023336  3.825637
H    0.152609  -2.111172  1.735657
H    -1.297172  -1.237978  1.197163
H    -1.568233  -0.309654  3.575970
H    -0.274595  -1.430068  4.106687
H    -0.792893  -3.925622  4.730277
H    -0.781225  -4.290691  2.964413
H    -2.161554  -4.807120  3.975116
O    1.603991  0.510648  3.641562
H    0.718883  0.819291  3.920747
Cd    3.002362  -0.277778  -0.293253
