21
Energy: -175946.6337904  eV PBE+vdW (tier 2 basis)
N    0.304659  1.553477  1.004070
C    0.579248  0.719095  2.095592
C    2.118527  0.162331  2.014294
O    2.927203  0.758943  2.770055
H    0.550638  2.537231  1.069562
H    0.296783  1.190703  0.056178
H    0.590179  1.325446  3.007835
C    -0.412431  -0.443549  2.328543
C    -0.941934  -1.257472  1.145050
S    0.079978  -2.710520  0.656122
C    -0.976070  -3.565170  -0.542810
H    -1.302802  0.042223  2.758077
H    -0.026890  -1.102828  3.118951
H    -1.159505  -0.667162  0.246276
H    -1.880342  -1.743250  1.449902
H    -0.355962  -4.345747  -1.000576
H    -1.363899  -2.871419  -1.295117
H    -1.784916  -4.031375  0.032120
O    2.408816  -0.759021  1.215846
H    0.953477  -2.106217  -0.190272
Cd    4.700055  -0.375700  1.998170
