21
Energy: -175947.7846035  eV PBE+vdW (tier 2 basis)
N    1.011810  -0.447761  -0.253751
C    0.609385  -0.011767  1.118793
C    1.859169  -0.050598  2.018749
O    2.764499  -0.876817  1.831599
H    0.180134  -0.578488  -0.837961
H    1.569602  0.279748  -0.716841
H    0.229798  1.021318  1.073816
C    -0.524842  -0.913544  1.699328
C    -0.191554  -2.247516  2.387508
S    0.449055  -3.714577  1.448157
C    -0.873939  -4.105977  0.264017
H    -1.278217  -1.054021  0.909753
H    -1.042223  -0.320086  2.469210
H    -1.106435  -2.635943  2.858960
H    0.545851  -2.136046  3.196011
H    -1.133359  -3.267893  -0.388955
H    -1.740502  -4.421275  0.859340
H    -0.515733  -4.957697  -0.326596
O    1.953969  0.751798  3.046921
H    1.249107  1.428560  3.103459
Cd    2.195426  -2.369418  0.246481
