21
Energy: -175946.4213500  eV PBE+vdW (tier 2 basis)
N    -0.271876  0.557839  0.676636
C    -0.085182  -0.112143  1.895267
C    1.450643  -0.396804  2.209738
O    1.857214  -0.337009  3.337735
H    -0.426094  1.562993  0.682197
H    0.185443  0.201580  -0.160953
H    -0.436609  0.512183  2.725369
C    -0.765448  -1.531094  1.977341
C    -2.296928  -1.366354  1.971139
S    -3.049587  -2.988444  2.286370
C    -2.871195  -3.888525  0.720418
H    -0.426757  -2.007942  2.907342
H    -0.425444  -2.139553  1.128793
H    -2.661930  -0.943399  1.025781
H    -2.630979  -0.735362  2.806494
H    -1.808542  -4.130629  0.595473
H    -3.244275  -3.306027  -0.128185
H    -3.427025  -4.827446  0.829206
O    2.123111  -0.690219  1.100564
H    3.068618  -0.850657  1.313826
Cd    -5.732706  -2.767090  2.523382
