21
Energy: -175946.6841158  eV PBE+vdW (tier 2 basis)
N    -0.449151  0.700663  0.580380
C    0.011730  0.280831  1.837967
C    1.619896  -0.045453  1.745206
O    1.975661  -1.215221  1.459583
H    -0.199251  1.629008  0.251230
H    -0.578219  0.011199  -0.156298
H    -0.025964  1.129034  2.535879
C    -0.758531  -0.951120  2.346064
C    -0.521124  -1.335705  3.805436
S    -1.494547  -0.470795  5.109053
C    -3.225917  -0.891027  4.789121
H    -0.477666  -1.822748  1.736660
H    -1.825386  -0.775786  2.150062
H    0.518311  -1.201059  4.137312
H    -0.773258  -2.389534  3.991283
H    -3.505183  -0.715528  3.746495
H    -3.818077  -0.263778  5.467710
H    -3.341727  -1.944451  5.070577
O    2.388145  0.937096  1.898689
H    -1.485595  0.795080  4.607480
Cd    4.154645  -0.403498  1.297945
