21
Energy: -175946.4854383  eV PBE+vdW (tier 2 basis)
N    -0.174325  0.891760  1.009304
C    0.151294  -0.208763  1.956455
C    1.653789  -0.578329  1.883210
O    2.504935  0.138369  1.336292
H    -0.930598  1.466373  1.414447
H    -0.531108  0.521102  0.120249
H    0.032861  0.227537  2.962914
C    -0.778693  -1.449162  1.842673
C    -2.274637  -1.132762  1.625646
S    -2.970212  0.319193  2.460667
C    -2.959539  -0.137723  4.203174
H    -0.669113  -2.035729  2.768219
H    -0.458327  -2.100443  1.014495
H    -2.868488  -2.013740  1.910722
H    -2.488737  -0.946137  0.563646
H    -3.602183  -1.018111  4.346697
H    -3.385372  0.713279  4.747334
H    -1.951157  -0.348123  4.581713
O    2.080071  -1.665544  2.469712
H    1.376205  -2.215439  2.867854
Cd    1.786917  2.045719  0.445490
