21
Energy: -175946.5577968  eV PBE+vdW (tier 2 basis)
N    -0.145873  0.936930  0.926837
C    0.254634  -0.077274  1.941859
C    1.760463  -0.419045  1.819902
O    2.558400  0.256355  1.154438
H    -0.889387  1.535638  1.320047
H    -0.546811  0.484221  0.096646
H    0.174056  0.429167  2.919842
C    -0.653324  -1.339559  1.955074
C    -2.168232  -1.070150  1.911389
S    -2.633507  0.428122  2.831627
C    -4.409074  0.514122  2.555059
H    -0.436274  -1.895213  2.879697
H    -0.397127  -2.004210  1.116376
H    -2.694286  -1.928301  2.355746
H    -2.542211  -0.971662  0.882530
H    -4.640401  0.545753  1.482584
H    -4.752402  1.432219  3.045203
H    -4.891839  -0.355404  3.022178
O    2.247703  -1.434577  2.483299
H    1.587387  -1.947495  2.989386
Cd    1.754178  2.069172  0.142257
