21
Energy: -175948.0525825  eV PBE+vdW (tier 2 basis)
N    -0.223914  -0.270767  0.152652
C    -0.033599  -0.123393  1.629910
C    0.862895  -1.270294  2.109632
O    0.874500  -2.389454  1.569579
H    -0.940873  0.384366  -0.173884
H    0.635483  -0.018650  -0.349997
H    0.486386  0.820542  1.848537
C    -1.393046  -0.107987  2.392102
C    -2.093213  -1.421784  2.770858
S    -2.831490  -2.556224  1.499118
C    -4.120158  -1.554349  0.697715
H    -2.076586  0.561657  1.848992
H    -1.205395  0.400410  3.350519
H    -2.949500  -1.190411  3.421633
H    -1.444901  -2.096691  3.348444
H    -4.877139  -1.351226  1.466170
H    -4.561589  -2.185680  -0.082644
H    -3.740134  -0.622376  0.269874
O    1.573837  -0.959708  3.159819
H    2.123413  -1.715792  3.469401
Cd    -0.795977  -2.494189  0.028570
