21
Energy: -175946.7419728  eV PBE+vdW (tier 2 basis)
N    0.442342  -1.156541  -0.067849
C    -0.127142  -0.263590  0.906668
C    0.964117  0.239200  1.942279
O    1.017162  1.489677  2.129525
H    1.173942  -1.768835  0.294311
H    0.772838  -0.691721  -0.912864
H    -0.480493  0.639686  0.398992
C    -1.321378  -0.859080  1.715465
C    -1.307216  -2.374506  1.938592
S    -1.962286  -3.228261  0.444899
C    -1.481748  -4.961727  0.639539
H    -2.244363  -0.565234  1.193201
H    -1.386558  -0.372893  2.698611
H    -2.001620  -2.655087  2.740545
H    -0.317287  -2.786041  2.175917
H    -0.415597  -5.058427  0.864782
H    -1.737931  -5.458621  -0.304375
H    -2.102846  -5.369974  1.445630
O    1.702803  -0.600095  2.524676
H    -0.966171  -2.757902  -0.380482
Cd    2.710672  1.214682  3.568119
