21
Energy: -175947.0220358  eV PBE+vdW (tier 2 basis)
N    1.230760  0.046709  0.114511
C    0.132211  0.020327  1.004457
C    0.441276  0.439245  2.461545
O    -0.348296  1.094699  3.180906
H    1.838984  -0.766896  0.078238
H    1.719740  0.926195  -0.023855
H    -0.599844  0.791385  0.659533
C    -0.533332  -1.388736  0.940054
C    -1.770346  -1.710300  1.781363
S    -3.275500  -0.708931  1.357348
C    -4.553171  -1.451980  2.418201
H    0.225439  -2.133000  1.230947
H    -0.744270  -1.561330  -0.124251
H    -1.606562  -1.660446  2.866160
H    -2.088613  -2.737441  1.546051
H    -5.449774  -0.829431  2.317412
H    -4.232966  -1.526568  3.461911
H    -4.751805  -2.446803  1.997018
O    1.611198  0.065703  2.894918
H    1.783124  0.367421  3.816037
Cd    -2.412820  1.397687  2.445305
