21
Energy: -175946.8805925  eV PBE+vdW (tier 2 basis)
N    0.539847  -0.506244  0.168130
C    -0.257336  -0.217614  1.371290
C    0.749173  0.148809  2.478415
O    1.949262  0.065634  2.297914
H    1.483762  -0.095776  0.249785
H    0.088020  -0.260605  -0.717324
H    -0.921420  0.643852  1.190043
C    -1.099739  -1.464279  1.681106
C    -0.209800  -2.710500  1.652249
S    0.754484  -2.723502  0.074749
C    2.499693  -2.703869  0.609301
H    -1.914815  -1.551354  0.949062
H    -1.570684  -1.386774  2.670941
H    -0.817409  -3.621429  1.665060
H    0.516837  -2.754544  2.473445
H    3.108355  -2.757110  -0.301514
H    2.694254  -3.562327  1.259053
H    2.678708  -1.772981  1.163718
O    0.126870  0.535188  3.581701
H    0.779072  0.800531  4.266083
Cd    0.746413  -5.465808  -0.523149
