21
Energy: -175946.2727248  eV PBE+vdW (tier 2 basis)
N    -1.233782  -1.392276  0.323877
C    -0.459299  -0.637778  1.231764
C    0.851939  -0.131580  0.580716
O    1.909267  -0.157284  1.171708
H    -1.184504  -1.160199  -0.666331
H    -2.114911  -1.796221  0.633467
H    -0.977198  0.312937  1.519476
C    -0.233774  -1.322007  2.612938
C    0.644390  -2.590811  2.485315
S    0.986459  -3.241303  4.140412
C    2.351651  -2.205043  4.738041
H    -1.211296  -1.568724  3.047880
H    0.241799  -0.577488  3.261442
H    1.593465  -2.365670  1.983874
H    0.107628  -3.383396  1.945800
H    2.694287  -2.635603  5.686324
H    3.163628  -2.141053  4.006204
H    1.934000  -1.209200  4.935678
O    0.633477  0.328694  -0.647836
H    1.465803  0.675851  -1.034589
Cd    2.159539  -5.628752  3.951612
