21
Energy: -175947.7315470  eV PBE+vdW (tier 2 basis)
N    -0.286631  0.612067  0.525247
C    -0.461587  0.254232  1.988495
C    0.915851  0.167268  2.634898
O    0.989488  0.420401  3.871840
H    -0.095650  1.618163  0.400852
H    -1.117338  0.382684  -0.041033
H    -1.084782  1.023831  2.457036
C    -1.095885  -1.163693  2.103075
C    -1.009014  -1.835867  3.490712
S    0.442832  -2.982877  3.741096
C    0.049730  -3.672088  5.376909
H    -0.645687  -1.822819  1.344241
H    -2.164546  -1.078033  1.857710
H    -1.853561  -2.531180  3.592734
H    -1.048624  -1.121818  4.321505
H    0.882242  -4.332640  5.645939
H    -0.862379  -4.270814  5.260985
H    -0.088305  -2.888708  6.128492
O    1.818927  -0.408873  1.950984
H    0.530706  0.091483  0.155520
Cd    2.419213  -1.330719  4.006763
