21
Energy: -175947.0231385  eV PBE+vdW (tier 2 basis)
N    0.680041  0.307839  -0.138485
C    0.181645  0.085816  1.283880
C    1.437256  -0.023977  2.176634
O    2.546445  0.304231  1.660483
H    0.054763  0.916040  -0.684786
H    0.780467  -0.581529  -0.649834
H    -0.324729  1.018560  1.577477
C    -0.792495  -1.102665  1.336892
C    -1.603756  -1.163068  2.638729
S    -2.623840  -2.662605  2.664648
C    -3.602741  -2.424968  4.148408
H    -0.232170  -2.039893  1.192264
H    -1.487804  -1.006026  0.488163
H    -2.263330  -0.288125  2.745054
H    -0.936476  -1.189261  3.516603
H    -4.223118  -1.522123  4.062378
H    -2.954385  -2.354781  5.032946
H    -4.244341  -3.309767  4.231457
O    1.286744  -0.394521  3.377019
H    1.627169  0.733239  -0.076220
Cd    3.544344  -0.097265  3.776582
