23
Energy: -565416.113725 eV PBE+vdW (tier 2 basis)
N    -0.098845  0.080989  -0.020184
C    -0.013573  -0.073585  1.489113
C    1.505932  -0.018296  1.874813
O    2.309015  0.310546  0.980216
H    -1.006416  0.478940  -0.303269
H    0.662819  0.688826  -0.367858
H    -0.446225  0.843113  1.920954
C    -0.755555  -1.322574  1.983263
C    -0.952118  -1.232337  3.500755
C    -0.141092  -2.635758  1.484984
C    -1.524165  -2.450825  4.201612
H    -1.771285  -1.225257  1.538016
H    -1.529635  -0.326674  3.749681
H    0.060326  -1.031384  3.948473
H    0.045740  -2.661901  0.399886
H    -0.817834  -3.473072  1.686048
H    0.808717  -2.849634  1.997120
H    -1.671075  -2.243100  5.267189
H    -0.899445  -3.348745  4.109366
H    -2.516085  -2.705437  3.781361
O    1.795249  -0.268861  3.092102
H    0.004646  -0.834905  -0.486146
Hg    4.040397  0.143170  2.803002
