23
Energy: -565415.667245 eV PBE+vdW (tier 2 basis)
N    0.265946  0.514259  0.897205
C    -0.031297  -0.318001  2.083241
C    1.217876  -1.081996  2.574607
O    2.157050  -1.406460  1.829472
H    0.644769  1.439036  1.133912
H    -0.576923  0.644444  0.324300
H    -0.315369  0.375088  2.895645
C    -1.214206  -1.323576  1.824973
C    -0.882567  -2.603438  1.019810
C    -2.446120  -0.567846  1.302533
C    -0.613180  -2.517713  -0.478902
H    -1.466036  -1.683737  2.836220
H    -1.776838  -3.247337  1.110123
H    -0.094361  -3.189054  1.516138
H    -3.313610  -1.239796  1.306244
H    -2.348638  -0.216595  0.262364
H    -2.701130  0.293324  1.933917
H    0.494563  -2.309797  -0.726964
H    -1.215556  -1.786444  -1.030396
H    -0.713465  -3.493961  -0.976882
O    1.274597  -1.472117  3.816959
H    0.540923  -1.153479  4.382813
Hg    1.779445  -0.718112  -0.340594
