23
Energy: -565415.58617 eV PBE+vdW (tier 2 basis)
N    0.768259  -0.566948  0.204288
C    0.186963  -0.094503  1.460856
C    1.260692  0.347779  2.499755
O    2.468425  0.445306  2.242509
H    0.276259  -0.218955  -0.626248
H    0.825984  -1.592304  0.158187
H    -0.369405  0.830457  1.233924
C    -0.803001  -1.209539  2.018691
C    -1.832986  -0.563634  3.003504
C    -0.073211  -2.420689  2.593083
C    -3.130983  -1.367904  3.050847
H    -1.382586  -1.510834  1.131266
H    -2.069138  0.472812  2.713282
H    -1.397148  -0.551363  4.024057
H    0.598483  -2.912679  1.872600
H    -0.802240  -3.190605  2.875256
H    0.509685  -2.176337  3.491904
H    -3.812397  -0.884850  3.771974
H    -2.971213  -2.404421  3.367868
H    -3.659488  -1.367048  2.086592
O    0.862537  0.686516  3.689754
H    -0.102783  0.544816  3.833329
Hg    3.023355  0.094130  0.017779
