23
Energy: -565416.059802 eV PBE+vdW (tier 2 basis)
N    -0.733674  0.669903  0.016877
C    -0.191543  0.358270  1.404954
C    1.373804  0.352488  1.343336
O    1.969039  0.197569  2.444382
H    -0.368575  1.555978  -0.362197
H    -1.763040  0.736461  0.062779
H    -0.455794  1.215224  2.042528
C    -0.763134  -0.950111  1.966698
C    -0.290731  -2.217566  1.207697
C    -2.301304  -0.846858  2.039094
C    -0.739237  -3.526216  1.847328
H    -0.358441  -0.997060  2.991215
H    0.814127  -2.206921  1.175657
H    -0.647470  -2.190611  0.162422
H    -2.792586  -0.979354  1.062646
H    -2.639291  0.091929  2.498021
H    -2.666725  -1.668186  2.671253
H    -0.423673  -3.594717  2.896559
H    -0.301406  -4.383020  1.314382
H    -1.828183  -3.665260  1.790183
O    1.913610  0.515540  0.222331
H    -0.496426  -0.076194  -0.655078
Hg    4.028652  0.359711  1.420934
