23
Energy: -565415.867214 eV PBE+vdW (tier 2 basis)
N    0.559593  0.167401  0.507184
C    0.160014  -0.051417  1.962047
C    1.475967  -0.387683  2.739561
O    2.492970  -0.665461  2.060316
H    -0.237109  0.551557  -0.023963
H    1.354484  0.817238  0.405347
H    -0.195378  0.918293  2.338796
C    -0.937707  -1.138815  2.049637
C    -1.968367  -0.915086  3.175122
C    -0.381535  -2.571145  1.982545
C    -1.482089  -0.941102  4.623459
H    -1.518014  -0.982628  1.114834
H    -2.738763  -1.687483  3.036160
H    -2.487360  0.041847  2.991898
H    0.323532  -2.734860  1.154033
H    -1.202746  -3.283666  1.844357
H    0.121188  -2.837408  2.924561
H    -2.351808  -0.835411  5.285669
H    -0.802050  -0.114985  4.891192
H    -0.963849  -1.878125  4.870316
O    1.420477  -0.347786  4.004170
H    0.838930  -0.721498  0.062308
Hg    3.622619  -0.936778  4.216453
