23
Energy: -565415.633213 eV PBE+vdW (tier 2 basis)
N    -0.873653  0.847830  0.242345
C    -0.971772  0.517951  1.572260
C    0.431069  1.069342  2.345188
O    0.241274  1.994603  3.105919
H    -0.283914  0.334541  -0.411851
H    -1.393838  1.632801  -0.147744
H    -1.757034  1.098683  2.067837
C    -1.047382  -1.002584  1.957228
C    -2.433509  -1.452415  1.357423
C    -0.929984  -1.237015  3.456934
C    -2.663476  -2.943647  1.562249
H    -0.248020  -1.539432  1.412367
H    -2.411530  -1.189561  0.286996
H    -3.248735  -0.873565  1.817020
H    0.048038  -0.945700  3.867159
H    -1.025160  -2.306910  3.676274
H    -1.717992  -0.711111  4.012258
H    -1.834392  -3.561332  1.196110
H    -3.561138  -3.198445  0.963904
H    -2.903686  -3.221942  2.594771
O    1.592513  0.560666  2.068585
H    1.579668  -0.235923  1.497513
Hg    2.043576  3.159404  4.350090
