23
Energy: -565415.595094 eV PBE+vdW (tier 2 basis)
N    0.572375  -0.521511  0.020230
C    0.209864  -0.121552  1.382898
C    1.450107  0.247792  2.248373
O    2.605180  0.320262  1.797497
H    -0.058693  -0.140432  -0.693661
H    0.625027  -1.541433  -0.092471
H    -0.365102  0.815387  1.301703
C    -0.695321  -1.280072  2.016969
C    -1.854986  -0.673558  2.871884
C    0.113810  -2.390769  2.683128
C    -1.538448  -0.006219  4.199319
H    -1.219069  -1.708043  1.147018
H    -2.490263  -1.559396  3.060295
H    -2.464646  -0.007565  2.244516
H    0.616364  -2.077426  3.606607
H    0.881832  -2.814450  2.017826
H    -0.555645  -3.222633  2.936752
H    -0.887701  -0.598222  4.860700
H    -2.472478  0.130315  4.770165
H    -1.186670  1.042148  4.104655
O    1.277429  0.535408  3.498478
H    0.334303  0.465733  3.815780
Hg    2.772494  0.158404  -0.501032
