23
Energy: -565415.376073 eV PBE+vdW (tier 2 basis)
N    0.727969  -0.509244  -0.055366
C    0.608758  -0.496980  1.414042
C    1.950624  -0.932140  2.054000
O    2.661272  -1.826321  1.560333
H    -0.187755  -0.535644  -0.519556
H    1.279849  0.266598  -0.442930
H    0.434002  0.552537  1.721253
C    -0.612272  -1.368168  1.878871
C    -0.988617  -1.121510  3.362764
C    -0.499359  -2.856931  1.540290
C    -0.311048  -1.961143  4.442700
H    -1.443640  -0.940030  1.291038
H    -2.078068  -1.263298  3.440989
H    -0.863702  -0.038125  3.566445
H    -0.406829  -3.065569  0.447363
H    -1.441187  -3.367270  1.793131
H    0.295834  -3.376823  2.090598
H    0.786677  -1.970222  4.405537
H    -0.638923  -3.010201  4.408992
H    -0.601860  -1.586643  5.431890
O    2.352420  -0.388381  3.164650
H    1.759253  0.310237  3.512037
Hg    1.839368  -2.505776  -0.487788
