23
Energy: -565416.041754 eV PBE+vdW (tier 2 basis)
N    -0.811617  0.594100  -0.041445
C    -0.086344  0.145927  1.217546
C    1.388062  -0.243684  0.850314
O    2.133010  -0.546079  1.823420
H    -1.003733  -0.221194  -0.652024
H    -0.280183  1.290198  -0.584342
H    0.011537  1.035873  1.857733
C    -0.828674  -0.983391  1.945662
C    -0.758177  -2.379148  1.263188
C    -2.276294  -0.540381  2.251972
C    -1.289697  -2.497844  -0.167143
H    -0.284559  -1.073398  2.899986
H    -1.320465  -3.061638  1.914487
H    0.284441  -2.734258  1.307736
H    -2.315508  0.450810  2.724548
H    -2.705092  -1.259347  2.963095
H    -2.939533  -0.549085  1.375231
H    -0.633513  -2.030253  -0.924137
H    -2.318622  -2.127628  -0.283323
H    -1.326134  -3.556063  -0.461527
O    1.723482  -0.208083  -0.357095
H    -1.719659  1.008513  0.219558
Hg    3.926274  -0.881944  0.431564
