23
Energy: -565416.049006 eV PBE+vdW (tier 2 basis)
N    -0.028169  0.516819  0.735148
C    0.190881  -0.499362  1.842356
C    1.623213  -1.120264  1.632036
O    2.054059  -1.882276  2.545433
H    -0.920364  1.009328  0.906038
H    -0.082015  0.067679  -0.191917
H    0.244540  0.072766  2.781066
C    -0.924273  -1.554640  1.891891
C    -2.346241  -0.870192  1.727910
C    -0.833754  -2.381204  3.166716
C    -2.713688  0.207184  2.740285
H    -0.822130  -2.217398  1.014625
H    -3.048657  -1.712362  1.803724
H    -2.459618  -0.508243  0.692618
H    0.126239  -2.917588  3.248210
H    -1.611879  -3.155691  3.164001
H    -0.945875  -1.772587  4.072459
H    -2.655829  -0.146287  3.776274
H    -3.754741  0.516272  2.565790
H    -2.113940  1.131492  2.673194
O    2.234371  -0.794910  0.590202
H    0.727440  1.216575  0.689936
Hg    4.037430  -2.256115  1.443008
