23
Energy: -565415.536032 eV PBE+vdW (tier 2 basis)
N    1.076189  -1.377811  0.770514
C    0.312502  -0.563335  1.724013
C    1.211857  -0.029810  2.889240
O    2.195311  -0.644506  3.318031
H    0.514377  -2.153106  0.390863
H    1.482065  -0.843183  -0.008104
H    -0.005420  0.346710  1.180451
C    -0.910727  -1.358722  2.284022
C    -2.029627  -1.415569  1.197292
C    -1.472344  -0.817156  3.602262
C    -1.691802  -2.064677  -0.133192
H    -0.548545  -2.389281  2.463753
H    -2.432599  -0.403305  1.041943
H    -2.839616  -1.989964  1.678384
H    -0.750998  -0.836927  4.429221
H    -2.315156  -1.446852  3.911102
H    -1.871652  0.202767  3.498477
H    -1.060549  -1.441039  -0.794025
H    -2.609504  -2.199074  -0.731830
H    -1.265537  -3.077005  -0.028339
O    0.899381  1.096367  3.460006
H    0.099248  1.530077  3.096815
Hg    2.845886  -2.393381  1.933783
