30
Energy: -244295.179456 eV PBE+vdW (tier 2 basis)
C    -0.743583  0.815171  0.471945
C    -0.707296  0.289901  1.869516
O    -0.183133  0.936712  2.812395
H    0.127003  1.461756  0.317236
H    -1.639321  1.440692  0.332887
H    -0.754226  0.019360  -0.280614
N    -1.263579  -0.924705  2.156140
C    -2.533750  -1.396012  1.631402
C    -3.639790  -0.331154  1.900754
O    -3.470850  0.590643  2.740612
H    -1.086861  -1.211369  3.118303
H    -2.458045  -1.507806  0.538990
C    -2.879360  -2.799373  2.208691
C    -2.422112  -3.157698  3.645724
C    -2.937332  -2.302479  4.788814
O    -2.472451  -1.149103  5.004583
N    -3.883950  -2.818954  5.570907
H    -2.411021  -3.547607  1.556527
H    -3.963097  -2.953919  2.121779
H    -1.323366  -3.149760  3.712610
H    -2.709244  -4.204882  3.808259
H    -4.228244  -3.764851  5.443536
H    -4.219084  -2.303318  6.380365
N    -4.754366  -0.432236  1.184398
C    -5.892983  0.481962  1.310179
H    -4.816109  -1.167157  0.485328
H    -6.649631  0.195960  0.575239
H    -5.575864  1.513731  1.118240
H    -6.326341  0.421061  2.315473
Ba    -1.933014  1.298437  4.643787
