30
Energy: -244294.67142 eV PBE+vdW (tier 2 basis)
C    0.288148  0.685848  0.361656
C    0.511809  0.191143  1.751976
O    1.688646  0.203295  2.256699
H    0.625839  1.730931  0.313384
H    -0.756933  0.639246  0.043066
H    0.914128  0.124724  -0.344762
N    -0.484968  -0.256828  2.505547
C    -1.818059  -0.744294  2.181649
C    -2.408017  -1.064818  3.587399
O    -1.621695  -1.339118  4.505969
H    -0.281493  -0.525664  3.484163
H    -2.414758  0.035563  1.689174
C    -1.802894  -2.028772  1.288106
C    -0.509548  -2.879198  1.288224
C    0.038214  -3.355865  2.621230
O    1.145444  -2.920696  3.062282
N    -0.649674  -4.262557  3.301583
H    -1.972333  -1.738103  0.243093
H    -2.667930  -2.646953  1.565809
H    0.304000  -2.336660  0.793879
H    -0.706276  -3.764396  0.664193
H    -1.523681  -4.643066  2.954647
H    -0.323493  -4.583138  4.209111
N    -3.743042  -1.059783  3.684890
C    -4.470943  -1.369113  4.915134
H    -4.285124  -0.755388  2.881746
H    -5.043573  -0.493712  5.243964
H    -3.746631  -1.636455  5.688683
H    -5.159793  -2.205905  4.748857
Ba    3.045812  -1.411216  3.433769
