30
Energy: -244294.980658 eV PBE+vdW (tier 2 basis)
C    -0.115019  -0.842107  0.445012
C    0.005618  -0.311767  1.836166
O    1.088461  -0.452550  2.493863
H    -1.115886  -0.708937  0.022322
H    0.150829  -1.906695  0.428705
H    0.613027  -0.320978  -0.193008
N    -1.040938  0.328104  2.367092
C    -1.042959  0.888954  3.720016
C    -1.222232  -0.270527  4.726152
O    -0.186547  -0.716078  5.325651
H    -1.972169  0.229705  1.942472
H    -0.022693  1.251248  3.896487
C    -2.004638  2.105983  3.916092
C    -2.982962  2.493687  2.793962
C    -4.078060  1.469236  2.549350
O    -3.828804  0.246033  2.657421
N    -5.285173  1.915172  2.188541
H    -1.370266  2.982380  4.094581
H    -2.567811  1.955828  4.846588
H    -2.449951  2.646563  1.840938
H    -3.412570  3.472373  3.046557
H    -5.497074  2.901969  2.095867
H    -6.018995  1.245869  1.972883
N    -2.426942  -0.778936  4.875180
C    -2.771006  -1.894552  5.751073
H    -3.147147  -0.412851  4.225669
H    -2.904827  -2.813082  5.164307
H    -3.711737  -1.667745  6.264236
H    -1.979385  -2.041420  6.490038
Ba    2.106855  -1.110880  4.597786
