30
Energy: -244294.798765 eV PBE+vdW (tier 2 basis)
C    2.522517  -0.111770  2.793578
C    1.369274  0.375882  3.620428
O    1.391622  0.388844  4.858246
H    3.356513  0.593474  2.916621
H    2.295167  -0.204724  1.725669
H    2.861317  -1.078489  3.183440
N    0.256459  0.817886  2.941824
C    -0.796243  1.606399  3.585898
C    -1.754867  0.756380  4.462876
O    -3.029357  0.856197  4.347328
H    0.292808  0.806589  1.928870
H    -0.296712  2.281731  4.304447
C    -1.534677  2.487428  2.572994
C    -2.169504  1.744570  1.364966
C    -3.483804  2.365344  0.949275
O    -4.484423  2.311572  1.725730
N    -3.576088  2.965492  -0.229688
H    -0.832286  3.245505  2.203024
H    -2.308060  3.041034  3.120588
H    -2.400218  0.701921  1.629001
H    -1.477184  1.711512  0.514230
H    -2.791827  3.016013  -0.871549
H    -4.455978  3.384207  -0.523294
N    -1.187897  -0.010451  5.361929
C    -1.902533  -0.857217  6.309171
H    -0.134112  0.057821  5.385411
H    -2.590677  -1.532010  5.785277
H    -2.468123  -0.248898  7.027717
H    -1.169281  -1.454609  6.857147
Ba    -5.281619  1.470002  3.887613
