30
Energy: -244294.837501 eV PBE+vdW (tier 2 basis)
C    0.787968  1.257304  1.328140
C    -0.184121  0.141211  1.559895
O    0.164417  -0.878341  2.230552
H    0.355544  2.116366  0.804806
H    1.626069  0.866278  0.733255
H    1.207664  1.592346  2.284857
N    -1.408395  0.262852  1.028312
C    -2.494615  -0.723582  0.909144
C    -3.182832  -1.111312  2.230747
O    -2.555069  -1.218616  3.337030
H    -1.577075  1.136742  0.538717
H    -3.264563  -0.193925  0.338111
C    -2.104620  -1.989543  0.083585
C    -2.546890  -1.912043  -1.381536
C    -4.069746  -1.889421  -1.555421
O    -4.839826  -1.619343  -0.617143
N    -4.528145  -2.152354  -2.789443
H    -2.558455  -2.876522  0.546472
H    -1.017862  -2.133404  0.129616
H    -2.127116  -2.766121  -1.931684
H    -2.133171  -1.013608  -1.868510
H    -3.917460  -2.389433  -3.562016
H    -5.527948  -2.112961  -2.963431
N    -4.465653  -1.377658  2.103774
C    -5.343408  -1.835223  3.174036
H    -4.816198  -1.386466  1.122416
H    -6.328360  -1.376143  3.039709
H    -4.935257  -1.541869  4.144723
H    -5.459789  -2.926973  3.136773
Ba    -0.481802  -1.891716  4.335864
