30
Energy: -244294.587089 eV PBE+vdW (tier 2 basis)
C    0.384085  1.430246  4.157798
C    -0.719596  1.197619  5.137631
O    -0.448580  1.131539  6.388633
H    1.095265  0.593113  4.180576
H    0.939051  2.321671  4.480975
H    0.039458  1.578853  3.131042
N    -1.982538  1.062383  4.753660
C    -2.503177  0.625484  3.460633
C    -4.034996  0.790872  3.600113
O    -4.524150  0.644549  4.730636
H    -2.717264  0.995516  5.471835
H    -2.095882  1.246393  2.654129
C    -2.134267  -0.863328  3.205935
C    -2.982275  -1.939357  3.910106
C    -3.097346  -1.957397  5.423143
O    -2.137225  -1.665637  6.203758
N    -4.253357  -2.390194  5.914187
H    -1.070900  -0.997325  3.446994
H    -2.220612  -1.062375  2.129025
H    -2.550458  -2.919561  3.643484
H    -3.997498  -1.945479  3.491112
H    -5.050547  -2.570975  5.313470
H    -4.389981  -2.499159  6.913914
N    -4.761059  1.007887  2.493461
C    -4.280382  1.294008  1.140331
H    -5.760526  1.096559  2.666135
H    -3.613013  0.505990  0.770502
H    -3.773578  2.266745  1.084211
H    -5.146482  1.326705  0.473381
Ba    -0.668628  -0.693983  7.925795
