30
Energy: -244295.508046 eV PBE+vdW (tier 2 basis)
C    -3.249167  0.092261  0.398731
C    -2.287674  -0.096860  1.535892
O    -1.180669  -0.658669  1.343023
H    -2.763241  0.683238  -0.388656
H    -4.186638  0.581699  0.682362
H    -3.475984  -0.891152  -0.034631
N    -2.687384  0.358867  2.743118
C    -2.072688  0.299873  4.082514
C    -0.750382  1.079155  4.199830
O    0.124722  1.086746  3.298428
H    -3.606186  0.790898  2.737404
H    -2.785700  0.867292  4.695433
C    -2.085696  -1.105866  4.750358
C    -1.335386  -2.311501  4.137299
C    0.153160  -2.373491  4.412850
O    0.994209  -1.871807  3.622719
N    0.553442  -2.979631  5.532147
H    -3.146050  -1.389688  4.792961
H    -1.775828  -0.972951  5.797584
H    -1.475781  -2.350622  3.052098
H    -1.804687  -3.215111  4.550580
H    -0.095530  -3.452905  6.151187
H    1.545959  -3.057262  5.738613
N    -0.552545  1.771461  5.326124
C    -1.454578  1.985848  6.461485
H    0.341742  2.258830  5.352813
H    -0.957928  2.664390  7.160504
H    -1.671125  1.052516  6.995120
H    -2.392660  2.460293  6.145372
Ba    1.270270  -0.391850  1.641736
