30
Energy: -244295.230568 eV PBE+vdW (tier 2 basis)
C    0.178599  -0.374143  1.795667
C    -0.687207  0.591415  2.537256
O    -0.208040  1.585741  3.141031
H    -0.262904  -1.373382  1.719149
H    1.146945  -0.435330  2.304806
H    0.374251  0.004346  0.780293
N    -2.040693  0.415814  2.560249
C    -2.838924  -0.007826  1.416890
C    -2.515851  0.895994  0.199056
O    -2.013818  2.040119  0.384701
H    -2.510603  1.074016  3.181000
H    -2.592219  -1.050280  1.171224
C    -4.347023  0.040684  1.766821
C    -5.056019  1.419908  1.809953
C    -4.722978  2.327112  2.981437
O    -3.606757  2.916211  3.067742
N    -5.646329  2.487688  3.924476
H    -4.483512  -0.494512  2.717561
H    -4.879768  -0.553912  1.014080
H    -6.136333  1.226439  1.799226
H    -4.837740  1.991581  0.895632
H    -5.463419  3.095334  4.719771
H    -6.555680  2.040351  3.872997
N    -2.787107  0.465160  -1.029735
C    -3.357502  -0.811835  -1.463842
H    -2.576007  1.141100  -1.764108
H    -2.913139  -1.081109  -2.427386
H    -4.445312  -0.735416  -1.589956
H    -3.128859  -1.610127  -0.751408
Ba    -1.338404  3.684874  2.217066
