30
Energy: -244294.97718 eV PBE+vdW (tier 2 basis)
C    1.345668  -0.241962  -0.062857
C    0.845831  0.313738  1.233338
O    1.619604  0.969625  1.994772
H    0.600221  -0.837940  -0.599451
H    2.238391  -0.854445  0.115530
H    1.656310  0.596946  -0.701962
N    -0.439308  0.108829  1.552927
C    -1.188491  0.704441  2.676800
C    -0.908252  -0.104661  3.963433
O    0.250213  0.025409  4.500236
H    -0.989798  -0.443400  0.898922
H    -0.753698  1.700510  2.856784
C    -2.646326  0.857886  2.208839
C    -3.635175  1.522913  3.191451
C    -4.692623  0.534081  3.680724
O    -4.389379  -0.651433  3.912889
N    -5.935998  0.995969  3.860966
H    -3.035582  -0.132337  1.926143
H    -2.608174  1.452558  1.286771
H    -4.104127  2.395942  2.722444
H    -3.122798  1.904503  4.089472
H    -6.204197  1.946581  3.637865
H    -6.650664  0.366396  4.214922
N    -1.823853  -0.897345  4.457101
C    -1.616074  -1.703892  5.658833
H    -2.825797  -0.866427  4.084304
H    -2.565362  -2.183902  5.910425
H    -1.289148  -1.078316  6.498727
H    -0.858743  -2.476582  5.477135
Ba    2.444331  0.971315  4.279520
