30
Energy: -244294.75967 eV PBE+vdW (tier 2 basis)
C    -0.481692  -1.580300  -0.389917
C    -0.883309  -0.595020  0.657179
O    -0.553089  0.641259  0.546687
H    -0.869686  -1.257388  -1.365165
H    -0.839258  -2.592792  -0.178296
H    0.614283  -1.596424  -0.465959
N    -1.578445  -1.010556  1.700999
C    -2.025157  -0.194550  2.825873
C    -2.371569  -1.252675  3.914272
O    -2.755911  -2.352931  3.519330
H    -1.879973  -1.991622  1.804430
H    -1.203354  0.471775  3.121749
C    -3.288304  0.612808  2.425004
C    -3.725394  1.721609  3.381593
C    -2.819190  2.934797  3.437902
O    -1.973351  3.185070  2.528426
N    -2.960154  3.760506  4.470536
H    -4.118766  -0.097704  2.313239
H    -3.125095  1.039203  1.424847
H    -3.893925  1.339439  4.398350
H    -4.710032  2.094335  3.051021
H    -3.652538  3.595162  5.194547
H    -2.429483  4.626253  4.516436
N    -2.301340  -0.926202  5.223493
C    -1.669072  0.210905  5.877273
H    -2.589510  -1.694749  5.828799
H    -0.822286  -0.121451  6.492102
H    -2.382783  0.732223  6.529754
H    -1.286852  0.922758  5.139412
Ba    -0.496548  3.006089  0.571025
