30
Energy: -244295.437425 eV PBE+vdW (tier 2 basis)
C    -1.495653  -2.530361  0.470066
C    -1.222141  -1.533915  1.548698
O    -0.084495  -1.012564  1.688994
H    -2.537605  -2.865491  0.439765
H    -0.841869  -3.401308  0.614184
H    -1.227904  -2.089226  -0.499112
N    -2.238071  -1.192606  2.381547
C    -2.023987  -0.214242  3.438469
C    -1.448260  -0.844203  4.722326
O    -0.207021  -0.718046  4.913821
H    -3.142147  -1.640087  2.256937
H    -1.178075  0.357930  3.066692
C    -3.118987  0.856309  3.602010
C    -2.784635  2.105988  2.750249
C    -1.499562  2.824410  3.153632
O    -0.371112  2.252949  3.152778
N    -1.605490  4.105420  3.500508
H    -3.199421  1.142999  4.659661
H    -4.108948  0.481076  3.306994
H    -3.628595  2.805326  2.787941
H    -2.669202  1.814029  1.694383
H    -2.494382  4.594132  3.494489
H    -0.773720  4.639519  3.739038
N    -2.254304  -1.490795  5.556724
C    -1.830408  -2.154691  6.790836
H    -3.244534  -1.526015  5.329202
H    -2.063877  -3.224668  6.736662
H    -2.354255  -1.715268  7.647852
H    -0.753233  -2.019832  6.911424
Ba    1.388899  0.373227  3.223228
