30
Energy: -244294.849315 eV PBE+vdW (tier 2 basis)
C    0.479690  -0.761658  1.209852
C    -0.302261  -0.904668  2.479053
O    -0.299058  -2.015653  3.114657
H    0.456407  0.254891  0.804722
H    0.055718  -1.446019  0.461157
H    1.522574  -1.065524  1.368684
N    -0.987253  0.141607  2.911148
C    -1.963511  0.223011  3.993897
C    -2.594914  1.635320  3.775556
O    -1.943907  2.467399  3.134272
H    -0.938503  1.053367  2.422420
H    -2.719494  -0.565055  3.856899
C    -1.381425  0.099034  5.422345
C    -0.183191  0.999089  5.741595
C    1.169877  0.457939  5.334104
O    1.418625  -0.784929  5.338003
N    2.119583  1.335713  5.027812
H    -1.128113  -0.951903  5.626454
H    -2.191049  0.337475  6.124576
H    -0.120865  1.128090  6.835295
H    -0.324394  2.007401  5.327523
H    1.942114  2.335356  5.035655
H    3.072714  1.026655  4.856910
N    -3.791914  1.851250  4.339080
C    -4.504713  3.126325  4.249629
H    -4.275295  1.072119  4.774707
H    -3.849684  3.854431  3.764328
H    -4.769578  3.480560  5.252578
H    -5.418420  3.010067  3.654233
Ba    0.948241  -3.128686  4.821852
