30
Energy: -244294.772042 eV PBE+vdW (tier 2 basis)
C    -1.047700  0.800961  0.049719
C    -0.754593  0.650077  1.509093
O    0.451451  0.730842  1.923958
H    -0.749660  1.807436  -0.275341
H    -2.103939  0.649052  -0.192736
H    -0.433952  0.087801  -0.516279
N    -1.783118  0.448930  2.326461
C    -1.813478  0.080713  3.754931
C    -1.105252  1.070144  4.689617
O    0.155289  1.109370  4.820592
H    -2.690859  0.152364  1.913176
H    -2.884242  0.141616  3.986963
C    -1.391346  -1.382344  4.009104
C    -2.026691  -2.409496  3.043322
C    -3.516065  -2.199070  2.753303
O    -3.934320  -1.125958  2.282858
N    -4.339305  -3.229149  3.009617
H    -1.660769  -1.624737  5.047341
H    -0.297971  -1.478349  3.941046
H    -1.833493  -3.414697  3.438402
H    -1.523044  -2.362399  2.066179
H    -4.010048  -4.120434  3.359129
H    -5.323335  -3.141881  2.771323
N    -1.895686  1.860420  5.404629
C    -1.435460  2.834754  6.392861
H    -2.897564  1.794590  5.244578
H    -2.208650  2.950705  7.158209
H    -1.254120  3.809260  5.920542
H    -0.513469  2.475574  6.858743
Ba    2.199776  1.050998  3.495979
