30
Energy: -244294.719722 eV PBE+vdW (tier 2 basis)
C    0.319489  0.581694  -0.093623
C    -0.022614  0.763116  1.354948
O    0.370778  1.823058  1.963982
H    -0.197841  1.364538  -0.667151
H    0.024484  -0.397184  -0.483250
H    1.394606  0.733366  -0.253789
N    -0.713740  -0.205445  1.936930
C    -1.398177  -0.259040  3.225917
C    -0.682107  0.368533  4.420204
O    0.580750  0.457558  4.503320
H    -0.938791  -1.075283  1.341565
H    -2.362618  0.265576  3.116129
C    -1.692726  -1.750614  3.572916
C    -2.751432  -2.459866  2.703382
C    -2.247826  -2.996837  1.366496
O    -1.368527  -2.405435  0.707200
N    -2.813782  -4.123723  0.916873
H    -2.044440  -1.791857  4.611374
H    -0.741088  -2.300539  3.551985
H    -3.591577  -1.780821  2.482780
H    -3.180648  -3.282013  3.291483
H    -3.520684  -4.628061  1.437788
H    -2.542846  -4.483257  0.006156
N    -1.437527  0.786937  5.438753
C    -2.897712  0.793495  5.570598
H    -0.906791  1.071595  6.260041
H    -3.154186  1.398659  6.444636
H    -3.296674  -0.217440  5.722489
H    -3.371251  1.247486  4.692580
Ba    2.126918  2.105911  3.547669
