30
Energy: -244294.752849 eV PBE+vdW (tier 2 basis)
C    -0.300032  -0.130164  0.365014
C    -0.178817  -0.645175  1.766189
O    0.861418  -1.301358  2.121962
H    -1.200067  0.472127  0.206490
H    -0.328995  -0.989263  -0.320261
H    0.584843  0.462956  0.099291
N    -1.169582  -0.400622  2.607576
C    -1.392524  -0.930643  3.950206
C    -2.851669  -0.470729  4.255107
O    -3.300422  0.477901  3.599027
H    -1.980248  0.183051  2.331207
H    -1.318305  -2.026902  3.917409
C    -0.423394  -0.407258  5.037559
C    -0.252620  1.113926  5.108693
C    0.757660  1.705926  4.150497
O    1.803720  1.074345  3.813203
N    0.546255  2.944009  3.716432
H    0.556776  -0.891699  4.917506
H    -0.795453  -0.760380  6.007593
H    0.117877  1.379821  6.113044
H    -1.218752  1.626184  4.998677
H    1.250133  3.424502  3.162455
H    -0.278990  3.469104  3.988731
N    -3.543259  -1.086875  5.227086
C    -3.182672  -2.245508  6.037237
H    -4.468027  -0.686260  5.376558
H    -2.789652  -1.949816  7.020269
H    -2.443524  -2.871135  5.525848
H    -4.076233  -2.858760  6.195834
Ba    3.036208  -0.882880  3.018951
