30
Energy: -244295.554575 eV PBE+vdW (tier 2 basis)
C    -2.683143  0.227280  0.928897
C    -1.821521  0.173355  2.154036
O    -0.575289  0.064492  2.065956
H    -2.467669  -0.645625  0.299356
H    -2.409444  1.116295  0.344029
H    -3.756393  0.261418  1.143257
N    -2.442288  0.243085  3.353241
C    -1.829021  0.243044  4.692895
C    -0.831573  1.425592  4.819227
O    0.396735  1.266433  4.594179
H    -3.454790  0.313465  3.328936
H    -2.672517  0.457766  5.357731
C    -1.173883  -1.086160  5.182749
C    -1.368069  -2.362002  4.342971
C    -0.049646  -3.021943  3.974193
O    0.949991  -2.332766  3.637844
N    0.008983  -4.350741  3.986517
H    -1.554934  -1.268400  6.194077
H    -0.101741  -0.904499  5.307184
H    -1.864072  -2.141282  3.384953
H    -2.022675  -3.076853  4.855550
H    -0.775796  -4.922926  4.278645
H    0.864185  -4.824430  3.707055
N    -1.309432  2.617764  5.170903
C    -2.690510  2.996563  5.482144
H    -0.602390  3.348777  5.237576
H    -3.069071  2.454635  6.358054
H    -3.353509  2.836302  4.623069
H    -2.700944  4.063908  5.719238
Ba    1.760422  -0.073544  2.933537
