30
Energy: -244294.725911 eV PBE+vdW (tier 2 basis)
C    0.060336  1.356573  0.218061
C    -0.061404  0.301905  1.276063
O    0.624693  -0.775657  1.186514
H    -0.550918  2.240629  0.424624
H    -0.253567  0.928740  -0.744161
H    1.108553  1.666529  0.112124
N    -0.889645  0.528413  2.281744
C    -1.388636  -0.391422  3.299884
C    -2.888718  0.050443  3.432776
O    -3.177289  1.199116  3.089607
H    -1.526884  1.349308  2.251618
H    -1.302391  -1.425650  2.936492
C    -0.712289  -0.232551  4.680586
C    0.697152  -0.838944  4.849197
C    1.876459  -0.072697  4.290560
O    2.632071  -0.587572  3.413999
N    2.132658  1.141804  4.768023
H    -1.357723  -0.733693  5.414668
H    -0.728243  0.832064  4.956607
H    0.730331  -1.848960  4.421249
H    0.883174  -0.958694  5.928564
H    1.581561  1.552973  5.514513
H    2.954942  1.651682  4.456633
N    -3.740144  -0.847095  3.950695
C    -5.156513  -0.564916  4.188434
H    -3.404619  -1.783516  4.150748
H    -5.402543  -0.729532  5.244050
H    -5.783327  -1.213166  3.564473
H    -5.346688  0.479758  3.929060
Ba    2.726323  -1.890788  1.352085
