30
Energy: -244294.869644 eV PBE+vdW (tier 2 basis)
C    0.084767  0.839479  0.208201
C    -0.109063  0.305976  1.594771
O    0.832505  0.383949  2.441843
H    0.870552  0.245961  -0.281363
H    0.449530  1.873069  0.253509
H    -0.818950  0.802555  -0.408840
N    -1.294688  -0.248131  1.884288
C    -1.730531  -1.040231  3.050172
C    -1.892069  -0.224197  4.347546
O    -1.025509  0.635057  4.726704
H    -1.968471  -0.230344  1.123827
H    -2.740914  -1.367415  2.779326
C    -0.887008  -2.326402  3.238636
C    -1.468549  -3.354222  4.234799
C    -2.924697  -3.733582  3.965047
O    -3.833998  -2.882503  4.022040
N    -3.181118  -5.015074  3.662603
H    0.135149  -2.072853  3.552357
H    -0.799088  -2.791105  2.246130
H    -1.432852  -2.961569  5.262136
H    -0.818964  -4.238709  4.222331
H    -2.462498  -5.728041  3.641093
H    -4.144997  -5.301560  3.514175
N    -2.965988  -0.519415  5.046934
C    -3.325848  0.070794  6.329942
H    -3.510410  -1.349103  4.695544
H    -3.080876  -0.617221  7.150457
H    -4.405814  0.253325  6.342458
H    -2.793751  1.014535  6.473376
Ba    1.228148  1.434976  4.583958
