30
Energy: -244294.674748 eV PBE+vdW (tier 2 basis)
C    -0.066795  0.907867  0.123746
C    -0.071445  0.542096  1.571667
O    1.022536  0.344402  2.195626
H    0.427114  0.108408  -0.445706
H    0.525490  1.821036  -0.020897
H    -1.070780  1.064591  -0.284195
N    -1.239590  0.418622  2.206480
C    -1.343421  -0.006162  3.605396
C    -2.551724  -0.892604  3.990878
O    -2.309892  -1.785407  4.804231
H    -2.084603  0.597566  1.671858
H    -0.507732  -0.698355  3.758454
C    -1.179768  1.181906  4.583654
C    -1.067431  0.763221  6.055342
C    0.056996  -0.203512  6.349190
O    1.169040  -0.127283  5.732913
N    -0.127853  -1.107463  7.296236
H    -2.026651  1.874485  4.485903
H    -0.288821  1.754198  4.286284
H    -2.012374  0.342328  6.420609
H    -0.873724  1.662390  6.663553
H    -1.034003  -1.233049  7.736556
H    0.616509  -1.748873  7.555647
N    -3.797172  -0.645650  3.522876
C    -4.287381  0.419164  2.655352
H    -4.482533  -1.319581  3.859296
H    -5.357088  0.557142  2.843079
H    -4.179510  0.175873  1.585485
H    -3.805893  1.380342  2.876950
Ba    2.720120  0.041872  3.882624
