30
Energy: -244294.63339 eV PBE+vdW (tier 2 basis)
C    -1.734342  -1.263183  0.547817
C    -1.243049  -1.601251  1.925378
O    -0.462180  -2.535112  2.143053
H    -2.551786  -0.533372  0.533213
H    -2.051746  -2.182511  0.042834
H    -0.890410  -0.856214  -0.027280
N    -1.712893  -0.821045  2.961102
C    -1.067084  -0.735520  4.274245
C    -1.288924  -1.971679  5.183576
O    -1.467929  -1.837883  6.444926
H    -2.294724  -0.036433  2.691461
H    0.026695  -0.752270  4.101863
C    -1.366124  0.624783  4.938708
C    -2.808778  1.166823  4.977001
C    -3.775625  0.606652  5.997942
O    -3.415262  0.332315  7.177565
N    -5.050883  0.482729  5.638573
H    -0.774643  1.371506  4.391995
H    -0.942878  0.619561  5.951929
H    -3.281540  1.151609  3.985412
H    -2.738395  2.238715  5.231097
H    -5.375535  0.734892  4.710983
H    -5.754214  0.231657  6.328647
N    -1.173403  -3.149006  4.618239
C    -1.248291  -4.418776  5.331023
H    -0.867928  -3.121614  3.607039
H    -1.148817  -5.227420  4.602345
H    -2.213338  -4.520953  5.842683
H    -0.438123  -4.503628  6.067601
Ba    -1.998008  -1.035799  8.608441
