30
Energy: -244295.593319 eV PBE+vdW (tier 2 basis)
C    -0.443463  -0.079983  -0.260884
C    -0.179223  -0.056123  1.216487
O    0.999704  -0.031821  1.649692
H    -1.505744  -0.108981  -0.524608
H    0.055960  -0.958296  -0.691605
H    0.013968  0.805160  -0.721979
N    -1.263131  -0.068544  2.022222
C    -1.406497  -0.111124  3.491401
C    -0.824558  1.121395  4.216036
O    0.321185  1.584317  4.003511
H    -2.148796  -0.085714  1.525742
H    -2.493873  -0.021183  3.623045
C    -1.095550  -1.490059  4.141450
C    0.295819  -2.157462  4.033600
C    1.333998  -1.692523  5.034303
O    2.161879  -0.786313  4.757267
N    1.346629  -2.277361  6.233398
H    -1.807736  -2.185893  3.677089
H    -1.397628  -1.421998  5.197579
H    0.717247  -2.030400  3.031096
H    0.138701  -3.235883  4.175243
H    0.738628  -3.056639  6.460328
H    2.043245  -2.005251  6.922097
N    -1.629056  1.673036  5.126169
C    -1.246257  2.819383  5.951623
H    -2.569094  1.306892  5.237790
H    -2.056599  3.026048  6.655345
H    -1.078462  3.704244  5.325612
H    -0.330259  2.597842  6.511466
Ba    2.623568  1.067712  3.171615
