30
Energy: -244294.458477 eV PBE+vdW (tier 2 basis)
C    -0.112470  -0.571794  0.018351
C    -0.226623  0.157892  1.326009
O    0.618850  1.063829  1.620257
H    -0.136382  0.155800  -0.804056
H    -0.904564  -1.310367  -0.144660
H    0.855485  -1.089166  -0.027857
N    -1.229205  -0.191719  2.136280
C    -1.654433  0.284679  3.471683
C    -2.862859  1.271235  3.471708
O    -3.197165  1.729137  4.558225
H    -1.787433  -0.968184  1.788347
H    -2.068336  -0.619751  3.941977
C    -0.527995  0.779645  4.407988
C    -0.340439  2.315621  4.461108
C    0.998956  2.682875  5.036730
O    2.038057  2.680969  4.299376
N    1.091977  2.983106  6.323360
H    0.405985  0.271549  4.135665
H    -0.781394  0.435942  5.417819
H    -1.162896  2.753781  5.038034
H    -0.390138  2.743458  3.450187
H    0.272034  3.013761  6.921615
H    1.993237  3.210602  6.737149
N    -3.471980  1.530952  2.294468
C    -4.683182  2.344906  2.199312
H    -3.136039  1.078976  1.452599
H    -4.550967  3.137901  1.454165
H    -4.871043  2.792053  3.179352
H    -5.543920  1.725041  1.918786
Ba    2.670713  2.310883  1.993345
