26
Energy: -16612.298656 eV PBE+vdW (tier 2 basis)
C    -3.238340  0.688408  1.738422
C    -2.201955  -0.014428  0.887798
O    -2.492173  -0.771672  -0.032344
H    -3.128179  0.429661  2.800669
H    -4.228003  0.380145  1.392719
H    -3.149856  1.781054  1.657492
N    -0.874861  0.228133  1.195515
C    -0.330484  1.215386  2.122280
C    -0.286477  2.659527  1.572554
O    -0.237430  3.618265  2.338878
H    -0.228677  -0.239511  0.560652
H    -0.967339  1.263539  3.016072
C    1.058265  0.700360  2.587335
O    0.898281  -0.549168  3.263545
C    1.795873  1.624744  3.538013
H    1.674315  0.554712  1.673883
H    0.296323  -1.100742  2.735328
H    2.727461  1.137440  3.850622
H    1.190729  1.826304  4.430511
H    2.035477  2.582464  3.064542
N    -0.287894  2.770663  0.214858
C    -0.271110  4.052768  -0.463866
H    -0.440172  1.928337  -0.327904
H    -1.221130  4.245086  -0.982409
H    0.547075  4.096828  -1.194841
H    -0.118719  4.827698  0.294675
