26
Energy: -16612.139291 eV PBE+vdW (tier 2 basis)
C    -0.240959  -0.097573  -0.093468
C    -0.163153  -0.199330  1.415920
O    0.916616  -0.274198  1.998083
H    -0.218663  -1.111890  -0.517284
H    0.656787  0.425896  -0.435699
H    -1.131364  0.407481  -0.477845
N    -1.329861  -0.270352  2.149564
C    -2.732681  -0.100625  1.783285
C    -3.145665  -0.805960  0.476108
O    -3.746259  -0.208678  -0.424730
H    -1.133515  -0.344730  3.144377
H    -3.309276  -0.622576  2.566999
C    -3.231617  1.375349  1.858652
O    -4.642781  1.403460  1.666779
C    -2.501014  2.378685  0.967499
H    -3.078547  1.679223  2.907286
H    -4.777639  1.084153  0.752208
H    -2.916677  3.376264  1.155859
H    -2.635835  2.147104  -0.095954
H    -1.426870  2.416089  1.193006
N    -2.875905  -2.135318  0.364207
C    -2.260269  -3.037470  1.324913
H    -3.191014  -2.524869  -0.519253
H    -2.560169  -4.061598  1.076415
H    -2.606958  -2.828461  2.344422
H    -1.162440  -2.981382  1.316085
