26
Energy: -16612.1602109 eV PBE+vdW (tier 2 basis)
C    0.092915  -0.008451  0.153440
C    0.050187  0.232112  1.653361
O    1.057225  0.531006  2.285868
H    -0.491089  0.753526  -0.383831
H    -0.301336  -0.992021  -0.129531
H    1.135939  0.065764  -0.164595
N    -1.164702  0.103406  2.295634
C    -2.482122  -0.021647  1.703604
C    -3.381049  1.037217  2.376453
O    -3.052922  1.549149  3.444303
H    -1.187508  0.536918  3.222293
H    -2.426987  0.165514  0.622128
C    -3.080084  -1.450521  1.922779
O    -3.155075  -1.757695  3.309989
C    -2.327036  -2.527716  1.146471
H    -4.127719  -1.438260  1.587162
H    -2.253617  -1.690166  3.670653
H    -2.778539  -3.505880  1.351679
H    -1.271994  -2.569450  1.451241
H    -2.369428  -2.349110  0.062295
N    -4.550806  1.370127  1.758215
C    -5.099056  0.885952  0.504318
H    -5.115133  2.014786  2.303739
H    -5.717183  -0.017090  0.629234
H    -4.300774  0.660708  -0.212810
H    -5.723764  1.670068  0.060414
