26
Energy: -16612.1249625 eV PBE+vdW (tier 2 basis)
C    0.314787  1.540756  0.514470
C    0.156286  0.118854  1.007993
O    1.012688  -0.744845  0.847653
H    1.252915  1.604077  -0.042306
H    0.339834  2.254804  1.349693
H    -0.518080  1.836146  -0.138407
N    -1.031246  -0.198323  1.645966
C    -2.010144  0.737151  2.190694
C    -1.573456  1.495872  3.465190
O    -1.733638  2.714751  3.518713
H    -1.009604  -1.139068  2.034541
H    -2.164851  1.540904  1.459333
C    -3.369341  0.009937  2.328526
O    -3.804147  -0.427309  1.040909
C    -4.464220  0.886536  2.910033
H    -3.228290  -0.872584  2.987373
H    -3.033076  -0.811648  0.588068
H    -5.410243  0.332167  2.908716
H    -4.591880  1.797166  2.311464
H    -4.233422  1.180779  3.941098
N    -1.025020  0.815170  4.516515
C    -0.692291  -0.594058  4.663001
H    -0.739436  1.439546  5.264821
H    -0.504182  -0.791475  5.724031
H    0.207012  -0.880301  4.097071
H    -1.526610  -1.241624  4.363946
