26
Energy: -16611.8669233 eV PBE+vdW (tier 2 basis)
C    -0.080402  -0.198726  0.118697
C    -0.058322  -0.102849  1.628596
O    0.996389  -0.060351  2.258465
H    -0.208590  -1.250062  -0.177570
H    0.892094  0.142365  -0.246564
H    -0.883909  0.371864  -0.356808
N    -1.250545  -0.119928  2.327079
C    -2.650401  -0.045801  1.907984
C    -2.963513  -0.891987  0.652896
O    -3.340322  -0.413178  -0.411030
H    -1.081580  -0.060156  3.328131
H    -3.214029  -0.536041  2.722588
C    -3.193054  1.414097  1.881264
O    -4.621983  1.412107  1.782776
C    -2.655596  2.322572  0.787484
H    -2.888838  1.840426  2.857425
H    -4.990321  1.105530  2.625493
H    -3.042220  3.336790  0.946036
H    -2.972483  1.969277  -0.198527
H    -1.560067  2.371854  0.823546
N    -2.817913  -2.246608  0.802005
C    -2.339968  -3.002559  1.947274
H    -3.010850  -2.754544  -0.055799
H    -2.619263  -4.053106  1.810539
H    -2.809338  -2.658458  2.878791
H    -1.248624  -2.942748  2.071435
