26
Energy: -16612.2514361 eV PBE+vdW (tier 2 basis)
C    -1.016478  0.990220  -0.339020
C    -0.470063  0.922162  1.076997
O    0.621022  1.394660  1.378906
H    -0.224261  1.380653  -0.982934
H    -1.876441  1.674452  -0.393478
H    -1.343704  0.009423  -0.707977
N    -1.241756  0.283115  2.024447
C    -2.617491  -0.173963  1.900481
C    -3.421087  0.443746  3.053973
O    -2.977871  0.398178  4.201483
H    -0.899008  0.368810  2.981343
H    -3.002271  0.129862  0.920935
C    -2.682563  -1.729385  1.976383
O    -1.805099  -2.291796  1.003134
C    -4.070791  -2.282842  1.706199
H    -2.358608  -2.015730  2.993921
H    -0.916177  -1.946510  1.195412
H    -4.055372  -3.376689  1.779356
H    -4.401794  -2.018798  0.691939
H    -4.799975  -1.902350  2.432920
N    -4.627096  1.012558  2.770501
C    -5.244994  1.221273  1.469473
H    -5.094496  1.391256  3.588689
H    -4.600755  1.803098  0.794506
H    -6.167586  1.791901  1.617678
H    -5.512954  0.276250  0.977546
