26
Energy: -16611.7879742 eV PBE+vdW (tier 2 basis)
C    0.265017  1.104245  1.444900
C    -0.012795  -0.126601  2.275015
O    0.906348  -0.715118  2.845425
H    -0.560252  1.431763  0.808758
H    0.531236  1.920781  2.130611
H    1.155278  0.897183  0.839922
N    -1.297833  -0.609569  2.446456
C    -2.650081  -0.384249  1.927460
C    -3.155828  -1.338285  0.806983
O    -4.350574  -1.639772  0.826484
H    -1.249440  -1.426024  3.052405
H    -3.301839  -0.689919  2.758960
C    -3.142708  1.041270  1.614085
O    -2.626660  1.449225  0.331063
C    -2.859619  2.055767  2.717922
H    -4.234018  0.911608  1.521047
H    -3.153398  2.202473  0.024453
H    -3.318726  3.022039  2.467233
H    -1.787607  2.217557  2.870970
H    -3.295053  1.718743  3.668606
N    -2.316361  -1.860393  -0.128104
C    -0.969236  -1.463594  -0.517734
H    -2.817344  -2.472463  -0.765106
H    -0.752891  -1.925605  -1.486992
H    -0.210376  -1.807235  0.196673
H    -0.890485  -0.377262  -0.640636
