26
Energy: -16612.0536706 eV PBE+vdW (tier 2 basis)
C    -0.777123  -1.525970  0.315414
C    -0.321140  -0.542562  1.379116
O    0.799310  -0.601547  1.880769
H    0.038497  -2.233963  0.148539
H    -1.005501  -1.020820  -0.633859
H    -1.675298  -2.079017  0.619399
N    -1.199045  0.444672  1.756702
C    -2.564144  0.688455  1.330155
C    -2.804819  2.153050  0.868275
O    -3.852938  2.733298  1.135676
H    -0.831726  1.060568  2.478346
H    -2.768246  0.055029  0.453330
C    -3.579011  0.314485  2.448045
O    -3.182161  0.902654  3.691923
C    -3.772964  -1.190476  2.580282
H    -4.525786  0.805852  2.191105
H    -2.538570  0.305667  4.107408
H    -4.494633  -1.404733  3.378412
H    -2.828190  -1.698527  2.830394
H    -4.158155  -1.628700  1.648789
N    -1.828387  2.780810  0.141733
C    -0.652371  2.242324  -0.530082
H    -2.110375  3.722364  -0.112903
H    -0.869891  1.296600  -1.044457
H    0.192684  2.082432  0.151655
H    -0.343489  2.963171  -1.295362
