26
Energy: -16612.1975127 eV PBE+vdW (tier 2 basis)
C    0.116311  0.205164  0.123551
C    0.076159  0.073005  1.633941
O    1.071782  0.197277  2.334935
H    1.082998  -0.155562  -0.241197
H    0.033410  1.271882  -0.128482
H    -0.692711  -0.335541  -0.384289
N    -1.174118  -0.199181  2.152983
C    -1.501784  -0.014733  3.561007
C    -1.009626  1.382167  4.056539
O    -0.978605  2.329799  3.276748
H    -1.945551  -0.100943  1.504331
H    -2.602049  0.080531  3.584452
C    -1.193376  -1.287394  4.407512
O    -1.759267  -1.157264  5.735605
C    0.265296  -1.665011  4.598315
H    -1.702125  -2.116532  3.884330
H    -2.723594  -1.082949  5.654658
H    0.316422  -2.556477  5.236320
H    0.839147  -0.856672  5.066099
H    0.739271  -1.883376  3.637056
N    -0.720037  1.469527  5.378910
C    -0.317172  2.714422  6.002596
H    -0.891208  0.644387  5.950633
H    0.595061  2.569453  6.596516
H    -1.105192  3.115390  6.657844
H    -0.117801  3.441632  5.209021
