26
Energy: -16612.2568338 eV PBE+vdW (tier 2 basis)
C    0.045168  0.191040  -0.086996
C    0.181076  0.191463  1.426227
O    1.216637  0.545727  1.979407
H    1.006710  0.497883  -0.506296
H    -0.724302  0.905317  -0.415290
H    -0.223487  -0.794747  -0.485697
N    -0.902183  -0.223497  2.174171
C    -2.261384  -0.463391  1.732666
C    -3.193203  0.306598  2.698881
O    -2.783403  0.726898  3.777110
H    -0.850723  0.057244  3.156909
H    -2.404576  -0.080755  0.710724
C    -2.622380  -1.983228  1.741597
O    -2.525762  -2.516965  3.058132
C    -1.805393  -2.797199  0.742277
H    -3.690606  -2.074637  1.486950
H    -1.608643  -2.389724  3.357378
H    -2.095466  -3.852594  0.811001
H    -0.730516  -2.724055  0.958813
H    -1.975795  -2.459466  -0.289974
N    -4.475006  0.457944  2.268092
C    -5.511506  1.067309  3.082481
H    -4.730648  0.077134  1.365083
H    -6.001097  1.888603  2.542641
H    -5.032157  1.465794  3.982243
H    -6.270714  0.330945  3.381893
