26
Energy: -16612.0727625 eV PBE+vdW (tier 2 basis)
C    -0.699151  0.616246  -0.433688
C    -0.034985  0.126164  0.840522
O    1.169985  0.257171  1.038280
H    0.087143  0.936446  -1.121983
H    -1.360176  1.468590  -0.225416
H    -1.300241  -0.167724  -0.916160
N    -0.836843  -0.470185  1.781208
C    -2.241845  -0.811086  1.701581
C    -3.133465  0.439775  1.525250
O    -2.994788  1.420762  2.247974
H    -0.336685  -0.834176  2.588964
H    -2.421265  -1.535190  0.885878
C    -2.651853  -1.483430  3.045059
O    -1.684642  -2.456252  3.449705
C    -4.058173  -2.067706  3.006657
H    -2.590740  -0.701314  3.816010
H    -1.754372  -3.226018  2.860707
H    -4.302202  -2.505545  3.981690
H    -4.138511  -2.860467  2.246607
H    -4.809553  -1.299547  2.780793
N    -4.105937  0.396152  0.562764
C    -4.399174  -0.647182  -0.407002
H    -4.667826  1.241220  0.534885
H    -5.183757  -0.279192  -1.076725
H    -4.769368  -1.569581  0.062974
H    -3.525916  -0.893314  -1.027689
