26
Energy: -16612.0874961 eV PBE+vdW (tier 2 basis)
C    -0.171186  -1.466960  1.085215
C    0.049845  0.031435  1.053539
O    1.169586  0.532040  0.995306
H    0.801308  -1.949295  1.211370
H    -0.622606  -1.814906  0.145617
H    -0.844791  -1.774078  1.896658
N    -1.068673  0.841081  1.057008
C    -2.441623  0.454612  1.353430
C    -3.077251  -0.558947  0.374055
O    -3.700827  -1.517945  0.828016
H    -0.849497  1.819318  1.237615
H    -2.508119  -0.050664  2.331279
C    -3.309778  1.728257  1.444747
O    -2.618602  2.589049  2.366344
C    -4.734000  1.438705  1.899875
H    -3.331848  2.212353  0.450105
H    -3.133325  3.405356  2.458379
H    -4.734656  0.957933  2.886237
H    -5.255731  0.777264  1.196622
H    -5.306049  2.374987  1.966302
N    -2.945955  -0.388131  -0.975699
C    -2.406054  0.721127  -1.748706
H    -3.440294  -1.112420  -1.490045
H    -2.009802  0.334407  -2.695481
H    -1.583985  1.197487  -1.208371
H    -3.171525  1.478755  -1.980822
