26
Energy: -16612.0189454 eV PBE+vdW (tier 2 basis)
C    -0.085469  -0.083888  0.077941
C    -0.069231  -0.008483  1.590590
O    0.977102  0.118746  2.221339
H    -0.261388  -1.117528  -0.252316
H    0.898995  0.231697  -0.277075
H    -0.863722  0.536328  -0.381601
N    -1.259333  -0.139831  2.279869
C    -2.641408  -0.103241  1.808784
C    -2.889666  -1.084348  0.641850
O    -3.267024  -0.708660  -0.467231
H    -1.129244  0.049754  3.269367
H    -3.243017  -0.474535  2.658200
C    -3.146871  1.333952  1.508631
O    -2.737518  2.197580  2.581081
C    -4.651273  1.402184  1.288031
H    -2.624369  1.705898  0.615754
H    -3.462532  2.234443  3.224861
H    -4.957177  2.443624  1.125163
H    -5.193213  1.016776  2.167956
H    -4.949149  0.811651  0.414968
N    -2.681147  -2.408352  0.904062
C    -2.218063  -3.041675  2.128493
H    -2.828367  -2.997492  0.090146
H    -2.467180  -4.107682  2.081547
H    -2.723726  -2.623479  3.008494
H    -1.133894  -2.935788  2.274380
