26
Energy: -16611.801059 eV PBE+vdW (tier 2 basis)
C    -0.034204  -0.103811  0.425286
C    -0.072470  -0.274940  1.928517
O    0.711361  -1.010633  2.516070
H    0.870648  -0.592271  0.054954
H    -0.024031  0.952124  0.126697
H    -0.907918  -0.584776  -0.035151
N    -1.004455  0.448897  2.657615
C    -2.205290  1.188592  2.231513
C    -3.212998  0.239083  1.519657
O    -3.738955  -0.626951  2.216443
H    -1.021195  0.129666  3.622648
H    -2.732404  1.381563  3.176922
C    -1.866340  2.600423  1.690293
O    -0.922800  3.216167  2.567124
C    -3.095065  3.498523  1.668608
H    -1.428196  2.543576  0.679003
H    -0.274796  2.526797  2.802436
H    -3.470842  3.631137  2.692038
H    -3.905102  3.082264  1.057470
H    -2.833480  4.486392  1.271126
N    -3.521766  0.305019  0.185408
C    -3.120237  1.184130  -0.902539
H    -4.223655  -0.394708  -0.041144
H    -3.648998  2.148542  -0.892850
H    -3.357222  0.679045  -1.845647
H    -2.043559  1.376997  -0.899515
