26
Energy: -16612.188096 eV PBE+vdW (tier 2 basis)
C    0.191855  0.419644  0.146951
C    -0.073823  -0.157906  1.526114
O    0.724898  -0.897744  2.095362
H    0.434291  -0.400776  -0.539281
H    1.075176  1.068558  0.202694
H    -0.648065  0.994352  -0.262246
N    -1.279000  0.180149  2.078734
C    -1.624808  -0.127720  3.455982
C    -1.465694  -1.599279  3.892594
O    -1.040597  -1.836081  5.021148
H    -1.836988  0.916664  1.654785
H    -0.951084  0.408387  4.146219
C    -3.081108  0.355224  3.706245
O    -3.269576  1.665724  3.139238
C    -3.471785  0.317607  5.174781
H    -3.763736  -0.282106  3.122939
H    -2.887507  2.311937  3.756396
H    -2.825218  0.983067  5.766667
H    -3.361473  -0.689914  5.593222
H    -4.513087  0.641326  5.291837
N    -1.918276  -2.611559  3.090519
C    -2.328506  -2.608375  1.695432
H    -1.710800  -3.517648  3.500514
H    -3.006150  -1.776805  1.477404
H    -1.473446  -2.551301  1.004273
H    -2.872112  -3.540054  1.498344
