26
Energy: -16612.1793634 eV PBE+vdW (tier 2 basis)
C    -0.185010  1.208167  1.754872
C    -0.138630  -0.255153  2.147528
O    0.798771  -0.745051  2.772830
H    0.742680  1.678357  2.089908
H    -1.038531  1.722221  2.220120
H    -0.281557  1.334523  0.667569
N    -1.214297  -1.031511  1.783658
C    -2.434745  -0.606623  1.132051
C    -3.511847  0.100921  1.975101
O    -4.426087  0.667310  1.355605
H    -1.132359  -1.998453  2.085021
H    -2.188046  0.126568  0.351193
C    -3.103787  -1.797119  0.375026
O    -4.072763  -1.318842  -0.541903
C    -3.694928  -2.856309  1.311129
H    -2.302070  -2.254693  -0.227956
H    -4.518688  -0.557656  -0.107001
H    -4.136818  -3.658473  0.708627
H    -4.488799  -2.430258  1.940546
H    -2.937261  -3.313522  1.966328
N    -3.505147  0.108277  3.334351
C    -2.685222  -0.604973  4.309866
H    -4.309153  0.612960  3.697303
H    -1.657534  -0.226046  4.359898
H    -2.654195  -1.683581  4.112049
H    -3.147557  -0.461779  5.292433
