26
Energy: -16612.2327149 eV PBE+vdW (tier 2 basis)
C    -0.094274  -1.219776  0.192458
C    -0.051152  -0.624146  1.585167
O    0.884148  -0.872125  2.353738
H    0.877293  -1.061789  -0.289310
H    -0.886303  -0.805986  -0.443379
H    -0.243943  -2.303847  0.281770
N    -1.099153  0.186531  1.907739
C    -1.411629  0.705555  3.251358
C    -2.787721  1.388280  3.197329
O    -3.688010  1.028975  3.949250
H    -1.853048  0.236099  1.230901
H    -1.553589  -0.137108  3.943888
C    -0.279919  1.589069  3.885320
O    0.707906  0.778732  4.489058
C    -0.813271  2.516823  4.970628
H    0.164666  2.193980  3.069955
H    0.957962  0.095365  3.819685
H    -1.344750  1.946117  5.743237
H    -1.495262  3.279131  4.572287
H    0.035913  3.024202  5.443377
N    -3.008820  2.363465  2.250120
C    -2.039181  3.190459  1.543421
H    -3.948670  2.743735  2.333100
H    -1.710118  4.055492  2.140492
H    -2.493013  3.560717  0.616042
H    -1.154396  2.604411  1.275255
