30
Energy: -38163.1823894 eV PBE+vdW (tier 2 basis)
C    1.278269  -0.582325  2.183385
C    0.412885  0.607837  2.459644
O    0.963707  1.700963  2.867703
H    0.714669  -1.441259  1.806430
H    2.059967  -0.322731  1.456689
H    1.783658  -0.872936  3.115484
N    -0.886446  0.477649  2.271735
C    -2.038555  1.308689  2.623592
C    -3.171341  0.228976  2.782676
O    -2.979165  -0.872774  2.262864
H    -1.273680  -0.456553  1.999611
H    -1.847370  1.832923  3.570987
C    -2.439531  2.322220  1.503903
C    -1.479412  3.457585  1.436748
N    -1.569916  4.583840  2.232241
C    -0.237381  3.548537  0.849593
C    -0.412290  5.282646  2.151424
N    0.442261  4.666042  1.324900
H    -3.459600  2.680498  1.700328
H    -2.474760  1.794582  0.541815
H    -2.394001  4.882649  2.749299
H    0.192262  2.884978  0.103437
H    -0.242841  6.230282  2.653543
N    -4.279179  0.600467  3.436036
C    -5.431710  -0.284645  3.625873
H    -4.299225  1.503329  3.898491
H    -6.353039  0.249051  3.368059
H    -5.486696  -0.625240  4.667184
H    -5.314593  -1.150951  2.969837
Ca    2.051052  3.441670  2.465491
