30
Energy: -38163.1465171 eV PBE+vdW (tier 2 basis)
C    -0.128252  -0.420006  -0.112169
C    -0.250174  -0.463459  1.371504
O    0.565215  -1.157339  2.068290
H    0.821540  0.077103  -0.362981
H    -0.946464  0.121803  -0.597094
H    -0.071466  -1.439400  -0.514124
N    -1.208266  0.254363  1.963223
C    -1.321573  0.537482  3.406446
C    -1.888690  -0.682190  4.164245
O    -1.106015  -1.655666  4.426922
H    -1.753113  0.867620  1.357839
H    -0.299868  0.666366  3.800395
C    -2.079847  1.857523  3.611177
C    -1.372186  2.995287  2.941665
N    -1.955843  4.232085  2.740780
C    -0.089023  3.132131  2.438736
C    -1.019717  5.035398  2.147262
N    0.114071  4.393721  1.948284
H    -2.174024  2.028441  4.696890
H    -3.109007  1.767992  3.212596
H    -2.891610  4.516856  3.012677
H    0.711009  2.396792  2.407365
H    -1.223476  6.068511  1.883722
N    -3.153203  -0.690950  4.532646
C    -3.828622  -1.762687  5.267577
H    -3.712535  0.125434  4.293710
H    -3.087648  -2.477750  5.630319
H    -4.544424  -2.270124  4.608633
H    -4.369290  -1.327691  6.115605
Ca    0.771501  -2.405646  3.743859
