30
Energy: -38164.0584962 eV PBE+vdW (tier 2 basis)
C    -0.292544  0.367435  0.159626
C    -0.102061  0.232903  1.638513
O    1.053828  0.295142  2.131379
H    0.314959  -0.393439  -0.348490
H    0.096974  1.345351  -0.156211
H    -1.333235  0.274902  -0.167311
N    -1.216547  0.052246  2.382490
C    -1.448696  -0.071868  3.840779
C    -0.638239  0.951310  4.664014
O    0.596388  0.800822  4.895694
H    -2.073847  0.016768  1.837342
H    -2.504413  0.202692  3.946010
C    -1.369595  -1.537055  4.387510
C    0.004607  -2.048324  4.657690
N    0.558420  -2.113234  5.918674
C    1.055099  -2.321171  3.801260
C    1.896059  -2.338592  5.795835
N    2.241559  -2.445250  4.513046
H    -1.879686  -2.180325  3.656750
H    -1.977323  -1.579658  5.302560
H    0.058040  -2.011657  6.798617
H    1.024692  -2.461193  2.724381
H    2.565333  -2.441772  6.644890
N    -1.283387  1.999100  5.167221
C    -2.694089  2.383403  5.027273
H    -0.692445  2.620596  5.720185
H    -2.826453  3.349131  5.522907
H    -3.358176  1.659664  5.516218
H    -2.971587  2.504766  3.973544
Ca    2.344365  -0.045696  3.839605
