30
Energy: -38163.0217792 eV PBE+vdW (tier 2 basis)
C    2.545382  0.267176  2.098138
C    1.160178  -0.160343  2.446294
O    0.613060  -1.123259  1.813842
H    2.956570  1.015837  2.782823
H    2.525065  0.693574  1.083449
H    3.208150  -0.606521  2.065087
N    0.519137  0.492872  3.420411
C    -0.910708  0.451905  3.804494
C    -1.318786  -0.873774  4.464865
O    -1.373608  -1.955940  3.793121
H    1.045348  1.257163  3.835883
H    -1.002402  1.238780  4.565127
C    -1.879958  0.825223  2.663067
C    -1.671864  2.229970  2.197953
N    -2.355964  2.770087  1.124028
C    -0.876914  3.266361  2.655967
C    -1.952914  4.072590  0.993122
N    -1.057659  4.395213  1.903119
H    -2.904034  0.678192  3.049503
H    -1.766320  0.113647  1.824359
H    -3.065546  2.313721  0.560221
H    -0.193663  3.286492  3.501980
H    -2.344251  4.727820  0.221227
N    -1.657870  -0.833834  5.740478
C    -2.138496  -1.963341  6.538551
H    -1.587409  0.063104  6.216928
H    -3.056010  -1.667153  7.059516
H    -1.379723  -2.241503  7.280750
H    -2.343620  -2.811638  5.882566
Ca    -0.672168  -2.772420  1.961128
