30
Energy: -38162.785149 eV PBE+vdW (tier 2 basis)
C    -0.174515  0.411806  0.225650
C    -0.357557  0.371513  1.702403
O    0.582797  0.729529  2.488161
H    0.707377  -0.182149  -0.050077
H    0.033785  1.448134  -0.077495
H    -1.045881  0.046648  -0.327328
N    -1.524759  -0.036233  2.218174
C    -1.787369  0.011370  3.660492
C    -0.883040  -0.991390  4.404251
O    0.019869  -0.479222  5.168024
H    -2.267717  -0.318682  1.582952
H    -1.408145  0.987369  3.998259
C    -3.299827  0.043680  4.042962
C    -4.113998  -1.185402  3.880511
N    -4.736896  -1.577819  2.699540
C    -4.366082  -2.211982  4.767555
C    -5.333807  -2.790750  2.945366
N    -5.105626  -3.202942  4.175959
H    -3.728241  0.901210  3.498709
H    -3.324610  0.331858  5.103550
H    -4.956386  -0.981492  1.906884
H    -4.052585  -2.282477  5.805829
H    -5.927964  -3.308645  2.198429
N    -0.940627  -2.303466  4.277260
C    -1.688304  -3.175337  3.365537
H    -0.274478  -2.789671  4.881889
H    -0.963453  -3.754746  2.779091
H    -2.327818  -2.597367  2.698896
H    -2.320115  -3.861141  3.940344
Ca    1.523707  0.818775  4.406180
