30
Energy: -38163.1469929 eV PBE+vdW (tier 2 basis)
C    -0.818985  -2.268670  1.924569
C    -0.817708  -0.848871  2.374163
O    -0.002506  -0.008448  1.863297
H    0.200320  -2.673537  1.956856
H    -1.140905  -2.293875  0.871993
H    -1.487403  -2.906915  2.511103
N    -1.698950  -0.462686  3.300255
C    -2.015872  0.927772  3.676932
C    -0.922395  1.510699  4.597661
O    0.167287  1.915701  4.070569
H    -2.389225  -1.156727  3.585293
H    -1.970388  1.538439  2.760052
C    -3.449881  0.996743  4.222883
C    -4.439302  0.529345  3.200148
N    -5.756901  0.241461  3.503008
C    -4.344453  0.321061  1.834202
C    -6.377908  -0.111910  2.335349
N    -5.545917  -0.077885  1.313864
H    -3.647405  2.039644  4.523206
H    -3.535828  0.380265  5.138666
H    -6.203582  0.311179  4.412017
H    -3.480377  0.443549  1.186037
H    -7.427895  -0.384292  2.294860
N    -1.135638  1.588641  5.895052
C    -0.205428  2.127414  6.889705
H    -2.032743  1.252584  6.239598
H    0.623888  2.622773  6.381015
H    0.176345  1.313694  7.519109
H    -0.736403  2.848866  7.520822
Ca    1.239158  1.640988  2.245718
