30
Energy: -38163.1993141 eV PBE+vdW (tier 2 basis)
C    0.562328  -0.514666  1.144926
C    -0.088381  -0.546067  2.490729
O    0.118054  -1.554093  3.265510
H    0.360200  0.410374  0.596355
H    0.190020  -1.363779  0.553864
H    1.647572  -0.644789  1.249177
N    -0.860793  0.469543  2.833642
C    -1.775393  0.647707  3.959487
C    -2.850560  1.617669  3.358236
O    -2.530655  2.241725  2.341636
H    -1.078633  1.222912  2.141386
H    -2.201236  -0.322156  4.248141
C    -1.107899  1.327617  5.197346
C    0.046402  0.527874  5.688573
N    1.359780  0.824415  5.397305
C    0.093916  -0.721584  6.275156
C    2.145013  -0.220617  5.757989
N    1.402297  -1.196656  6.290072
H    -1.861343  1.425679  5.989523
H    -0.797737  2.346082  4.926288
H    1.694835  1.704733  5.010654
H    -0.723578  -1.272946  6.735882
H    3.225683  -0.226856  5.653547
N    -4.031875  1.754565  3.977350
C    -4.545824  1.074069  5.160275
H    -4.638023  2.447203  3.539474
H    -4.081949  0.088804  5.281172
H    -5.622251  0.913632  5.037283
H    -4.388764  1.666624  6.072756
Ca    0.884795  -2.833018  4.721265
