30
Energy: -38163.2320942 eV PBE+vdW (tier 2 basis)
C    -0.405211  -1.513025  0.639128
C    -0.486689  -0.239732  1.408541
O    0.546951  0.500475  1.548826
H    -1.337429  -2.086657  0.657383
H    0.414484  -2.130762  1.028294
H    -0.154496  -1.273268  -0.404955
N    -1.655739  0.125298  1.936821
C    -1.936282  1.397316  2.612594
C    -1.331409  1.363332  4.030545
O    -0.112267  1.726206  4.170465
H    -2.448365  -0.524888  1.887139
H    -1.378532  2.183393  2.082744
C    -3.450166  1.737586  2.479407
C    -4.387146  0.657904  2.910604
N    -5.053295  0.645377  4.136477
C    -4.720646  -0.551218  2.326573
C    -5.766573  -0.533816  4.194394
N    -5.558834  -1.279469  3.133937
H    -3.618334  1.961913  1.416376
H    -3.636339  2.677558  3.017254
H    -5.255245  1.466003  4.703447
H    -4.459058  -0.910394  1.332093
H    -6.417089  -0.777165  5.029378
N    -2.054394  0.938380  5.044519
C    -1.591259  0.826719  6.428985
H    -3.012387  0.633954  4.839850
H    -1.300357  -0.209104  6.647841
H    -2.408900  1.113151  7.098328
H    -0.738509  1.491041  6.587793
Ca    1.617518  1.690891  2.920222
