30
Energy: -38163.1661581 eV PBE+vdW (tier 2 basis)
C    -1.543821  -2.132022  -0.818939
C    -1.016847  -1.516931  0.434523
O    0.067355  -1.943955  0.951805
H    -1.618268  -3.220395  -0.699093
H    -0.813969  -1.951340  -1.622393
H    -2.515055  -1.731754  -1.127345
N    -1.699512  -0.508437  0.987870
C    -1.279750  0.406790  2.067733
C    -1.424711  -0.261173  3.456084
O    -0.786005  -1.351368  3.677136
H    -2.563020  -0.245935  0.515707
H    -0.195430  0.572014  1.950672
C    -2.035855  1.744452  1.807410
C    -1.938347  2.809609  2.844291
N    -0.793329  3.515631  3.166985
C    -2.906545  3.298034  3.709258
C    -1.121838  4.382044  4.179851
N    -2.383723  4.261209  4.533542
H    -3.107674  1.519502  1.686263
H    -1.685067  2.108927  0.828347
H    0.093476  3.498781  2.673601
H    -3.962835  3.036838  3.740048
H    -0.402541  5.073328  4.608657
N    -2.144238  0.305842  4.391683
C    -2.301542  -0.214114  5.751532
H    -2.502975  1.257468  4.193028
H    -1.346817  -0.174336  6.291566
H    -2.658664  -1.249254  5.723252
H    -3.032734  0.411261  6.270440
Ca    0.651282  -2.656717  2.853487
