30
Energy: -38162.3039945 eV PBE+vdW (tier 2 basis)
C    -0.646827  0.860875  0.381550
C    -0.212166  0.057853  1.553251
O    1.015396  -0.284161  1.684143
H    -0.998172  0.207197  -0.432953
H    -1.461334  1.544554  0.651154
H    0.219095  1.414240  0.001167
N    -1.067083  -0.315250  2.537761
C    -2.359340  -0.995920  2.384900
C    -2.046698  -2.467046  1.966055
O    -0.854871  -2.810201  1.652813
H    -0.569834  -0.617270  3.376781
H    -2.793730  -1.021570  3.396747
C    -3.395492  -0.334223  1.455195
C    -3.689344  1.078856  1.837323
N    -4.530059  1.885896  1.090557
C    -3.295869  1.874977  2.900861
C    -4.603448  3.096662  1.726416
N    -3.863705  3.117756  2.816343
H    -3.075124  -0.419157  0.403422
H    -4.312315  -0.945862  1.524864
H    -5.039316  1.626658  0.251552
H    -2.636823  1.625997  3.727117
H    -5.207354  3.915670  1.348145
N    -3.040974  -3.331661  1.964020
C    -2.955488  -4.750953  1.607444
H    -3.955011  -2.992523  2.259528
H    -3.836386  -5.019392  1.014927
H    -2.934725  -5.365521  2.516584
H    -2.052092  -4.928027  1.020045
Ca    1.260265  -2.404882  1.544194
