30
Energy: -38161.0305018 eV PBE+vdW (tier 2 basis)
C    -0.039033  -1.518340  0.793003
C    0.053129  -0.263162  1.586672
O    1.168695  0.033096  2.223729
H    -0.404419  -1.310572  -0.222901
H    -0.760810  -2.210715  1.253668
H    0.932066  -2.016282  0.733449
N    -0.940582  0.581983  1.679025
C    -2.275709  0.491629  1.090982
C    -2.420457  0.846890  -0.425398
O    -3.401283  0.371735  -0.974651
H    -0.793170  1.468622  2.204451
H    -2.614703  -0.549922  1.137425
C    -3.242513  1.364859  1.957329
C    -2.684215  2.716818  2.231867
N    -2.870797  3.828124  1.438139
C    -1.739098  3.121777  3.168318
C    -2.067210  4.828486  1.920811
N    -1.359295  4.426206  2.958870
H    -3.419227  0.842685  2.907112
H    -4.204659  1.398004  1.430741
H    -3.540397  3.912756  0.678473
H    -1.407678  2.568495  4.045721
H    -2.053664  5.824080  1.488104
N    -1.521703  1.635057  -1.078107
C    -0.378119  2.405904  -0.609644
H    -1.767666  1.738232  -2.060873
H    -0.576345  2.909749  0.343387
H    -0.176014  3.190664  -1.345954
H    0.534487  1.794310  -0.524512
Ca    2.827818  0.418674  3.246387
