30
Energy: -38163.1950155 eV PBE+vdW (tier 2 basis)
C    -2.383251  2.388981  0.568388
C    -1.606986  1.146763  0.849032
O    -0.330558  1.147677  0.685560
H    -3.450107  2.301140  0.789430
H    -1.962747  3.195629  1.186461
H    -2.254520  2.693795  -0.478848
N    -2.199513  0.042755  1.290046
C    -3.575879  -0.409339  1.033301
C    -3.697662  -1.754858  1.784147
O    -2.747631  -2.552540  1.693197
H    -1.590467  -0.752432  1.521834
H    -4.301649  0.330030  1.391594
C    -3.787827  -0.661212  -0.517207
C    -2.495875  -1.019586  -1.175919
N    -1.781941  -2.162547  -0.885116
C    -1.623276  -0.233565  -1.899704
C    -0.530250  -2.036966  -1.368732
N    -0.383240  -0.858039  -1.996261
H    -4.557275  -1.433439  -0.650552
H    -4.171087  0.254153  -0.984281
H    -2.101299  -2.872782  -0.215192
H    -1.824788  0.721430  -2.377427
H    0.226423  -2.811267  -1.283834
N    -4.840799  -1.982964  2.434737
C    -5.144680  -3.233288  3.132134
H    -5.532148  -1.240027  2.479738
H    -4.303344  -3.918418  3.002023
H    -6.055067  -3.681443  2.716959
H    -5.293702  -3.037520  4.200561
Ca    1.003145  0.613877  -0.867069
