30
Energy: -38163.1648816 eV PBE+vdW (tier 2 basis)
C    -1.509932  -2.132182  -0.582008
C    -0.933399  -1.447747  0.612219
O    0.208390  -1.793890  1.061273
H    -2.523996  -1.800908  -0.828128
H    -1.507210  -3.218791  -0.428227
H    -0.852809  -1.932483  -1.441784
N    -1.634097  -0.462827  1.185354
C    -1.191685  0.508187  2.205698
C    -1.212734  -0.121964  3.620137
O    -0.481755  -1.156322  3.826551
H    -2.543051  -0.265186  0.770388
H    -0.126650  0.719590  2.012422
C    -2.026426  1.799445  1.953176
C    -1.916921  2.899952  2.951120
N    -0.786554  3.661996  3.186639
C    -2.853158  3.371811  3.858927
C    -1.092882  4.542651  4.194170
N    -2.325410  4.378945  4.625589
H    -3.091774  1.522114  1.904528
H    -1.753590  2.147473  0.943751
H    0.068839  3.669565  2.640440
H    -3.893505  3.067678  3.959918
H    -0.380749  5.275774  4.560953
N    -1.926361  0.427803  4.570880
C    -2.006814  -0.021790  5.959352
H    -2.360727  1.342320  4.350338
H    -3.046305  -0.283611  6.192828
H    -1.696606  0.798612  6.617789
H    -1.364312  -0.890838  6.112382
Ca    0.974185  -2.394378  2.937323
