30
Energy: -38163.021745 eV PBE+vdW (tier 2 basis)
C    2.410014  0.415334  1.883487
C    1.047057  -0.001769  2.320621
O    0.464085  -0.977875  1.742855
H    2.860819  1.177806  2.526744
H    2.330943  0.819914  0.862741
H    3.069128  -0.460139  1.830778
N    0.463294  0.674630  3.314776
C    -0.942405  0.645625  3.780331
C    -1.312561  -0.662830  4.495052
O    -1.404307  -1.761128  3.854219
H    1.013186  1.446739  3.682375
H    -0.990582  1.451248  4.525194
C    -1.975065  0.991989  2.687051
C    -1.796165  2.385313  2.177629
N    -2.548503  2.902547  1.138600
C    -0.972027  3.429963  2.558897
C    -2.153627  4.200706  0.951799
N    -1.200595  4.541812  1.793874
H    -2.975345  0.854408  3.134486
H    -1.908539  0.260472  1.860452
H    -3.293753  2.435085  0.632914
H    -0.234513  3.467649  3.357355
H    -2.593815  4.839043  0.192143
N    -1.580002  -0.590853  5.786237
C    -2.014948  -1.699447  6.637973
H    -1.483436  0.317652  6.235419
H    -2.251013  -2.565410  6.016384
H    -2.905155  -1.391233  7.197948
H    -1.217685  -1.956127  7.346804
Ca    -0.810484  -2.621124  2.003861
