30
Energy: -38164.16 eV PBE+vdW (tier 2 basis)
C    0.268738  0.232890  0.486738
C    -0.038431  -0.366693  1.823881
O    0.898824  -0.643696  2.616805
H    0.793412  1.185944  0.642182
H    -0.613096  0.408721  -0.137680
H    0.964622  -0.427362  -0.047963
N    -1.342094  -0.576774  2.111462
C    -2.051977  -1.090918  3.307871
C    -1.507786  -0.517452  4.636239
O    -0.407131  -0.881911  5.135781
H    -1.974641  -0.302204  1.364434
H    -3.065489  -0.686944  3.183668
C    -2.245930  -2.645719  3.318302
C    -1.071661  -3.422569  3.808424
N    -0.976889  -3.934780  5.085279
C    0.191437  -3.587670  3.272210
C    0.312094  -4.313301  5.308203
N    1.063055  -4.090885  4.229765
H    -2.505008  -2.947966  2.294011
H    -3.130884  -2.863931  3.932555
H    -1.740028  -4.026016  5.751817
H    0.517665  -3.400266  2.253068
H    0.651981  -4.759958  6.237900
N    -2.293688  0.357999  5.254066
C    -1.979988  1.002472  6.530709
H    -3.161611  0.630365  4.800508
H    -1.487341  1.968649  6.360095
H    -1.318925  0.355158  7.112742
H    -2.911754  1.168542  7.080135
Ca    1.538520  -1.654725  4.419791
