30
Energy: -38163.1950492 eV PBE+vdW (tier 2 basis)
C    -2.079780  2.410137  0.870159
C    -1.368136  1.101332  0.941865
O    -0.125448  1.037875  0.613977
H    -1.526535  3.128841  1.492115
H    -2.062000  2.801124  -0.155992
H    -3.113854  2.369063  1.221899
N    -1.981191  0.000349  1.362114
C    -3.408641  -0.337987  1.249434
C    -3.536862  -1.737052  1.893462
O    -2.669120  -2.582389  1.611368
H    -1.408490  -0.849363  1.444752
H    -4.027062  0.409198  1.760367
C    -3.829632  -0.429989  -0.275998
C    -2.659427  -0.805190  -1.125307
N    -2.000328  -2.012000  -1.026009
C    -1.828584  -0.011466  -1.888755
C    -0.812727  -1.920155  -1.656546
N    -0.659206  -0.699968  -2.197766
H    -4.664554  -1.136878  -0.372849
H    -4.199321  0.547145  -0.609850
H    -2.285158  -2.759141  -0.380878
H    -2.017788  0.993913  -2.255185
H    -0.109891  -2.744224  -1.735522
N    -4.603171  -1.950558  2.667746
C    -4.911337  -3.238130  3.291511
H    -5.225223  -1.172109  2.865217
H    -4.913264  -3.132640  4.382801
H    -4.145617  -3.960167  2.997389
H    -5.896557  -3.587707  2.961062
Ca    0.960903  0.573136  -1.140582
