30
Energy: -38163.092999 eV PBE+vdW (tier 2 basis)
C    -0.523882  1.034822  0.899012
C    -0.147836  -0.338289  1.343398
O    1.059778  -0.750665  1.166439
H    -1.564747  1.295268  1.107594
H    -0.324571  1.161365  -0.173252
H    0.126899  1.748005  1.426400
N    -1.018840  -1.139481  1.941417
C    -2.477458  -1.174598  1.793631
C    -2.928026  -2.319164  2.731766
O    -2.173304  -3.302352  2.833403
H    -0.680368  -2.049024  2.291677
H    -2.926358  -0.212367  2.059696
C    -2.873976  -1.561746  0.305493
C    -1.802426  -2.393975  -0.319129
N    -1.468445  -3.667276  0.095475
C    -0.758617  -2.007751  -1.133324
C    -0.261526  -3.995253  -0.407191
N    0.220275  -2.995454  -1.163344
H    -2.991142  -0.647711  -0.289251
H    -3.849799  -2.065539  0.313531
H    -1.970214  -4.195821  0.812637
H    -0.670040  -1.091935  -1.711312
H    0.216867  -4.955456  -0.239376
N    -4.123609  -2.228619  3.322733
C    -5.061186  -1.102857  3.306933
H    -4.367011  -3.038635  3.890658
H    -5.361109  -0.836607  2.285458
H    -4.647288  -0.223584  3.817816
H    -5.963241  -1.408259  3.844204
Ca    2.072199  -1.912043  -0.275189
