29
Energy: -573095.267256 eV PBE+vdW (tier 2 basis)
C    1.781725  -0.124510  1.701364
C    1.293022  -1.355550  1.002181
O    2.119404  -1.902796  0.166685
H    2.826046  -0.263967  2.006315
H    1.173712  0.135635  2.573810
H    1.771576  0.713642  0.988725
N    0.111508  -1.946532  1.147071
C    -1.101082  -1.410996  1.720109
C    -1.114041  -1.636488  3.232485
O    -0.302256  -2.542319  3.714819
H    0.260488  -2.868828  2.969372
H    -1.228523  -0.335183  1.515979
C    -2.294492  -2.216090  1.101511
C    -2.359503  -2.137800  -0.458062
C    -2.241170  -3.486449  -1.153163
O    -1.168336  -4.084527  -1.421204
O    -3.319990  -4.130923  -1.520092
H    -3.240886  -1.849484  1.516391
H    -2.190703  -3.259162  1.431305
H    -1.560321  -1.494279  -0.850761
H    -3.302433  -1.666817  -0.764489
N    -1.885527  -1.022966  4.087778
C    -2.887577  0.016956  3.836110
H    -1.777141  -1.319595  5.062815
H    -3.892349  -0.395443  3.991715
H    -2.800713  0.405140  2.818232
H    -2.726154  0.836137  4.545829
H    -4.146554  -3.636016  -1.355407
Hg    0.729432  -3.293905  -0.742117
