29
Energy: -573095.155483 eV PBE+vdW (tier 2 basis)
C    0.501264  0.281535  0.211482
C    0.091514  -0.075866  1.601638
O    0.234466  -1.301394  1.934787
H    -0.008851  -0.392398  -0.491568
H    1.579206  0.099211  0.095556
H    0.270345  1.319881  -0.051689
N    -0.421681  0.908923  2.379741
C    -0.916737  0.751983  3.740944
C    -2.397231  1.079491  3.957161
O    -2.975501  0.530978  4.976379
H    -0.306288  1.846872  1.999394
H    -0.921762  -0.335914  3.893339
C    -0.001849  1.421276  4.821304
C    -0.077855  0.815616  6.267625
C    -0.175246  -0.681320  6.045442
O    0.970391  -1.276262  5.807551
O    -1.283797  -1.205700  5.814941
H    -0.225538  2.494860  4.893441
H    1.029520  1.330200  4.456352
H    -0.953607  1.168630  6.823218
H    0.829388  1.100738  6.810525
N    -3.087107  1.890419  3.196622
C    -4.506270  2.236189  3.392661
H    -2.617981  2.324685  2.406071
H    -4.983896  1.477283  4.016715
H    -4.990052  2.278327  2.411709
H    -4.579475  3.216400  3.880451
H    -2.384068  -0.192519  5.433515
Hg    0.657066  -2.126375  3.904038
