29
Energy: -573094.7838 eV PBE+vdW (tier 2 basis)
C    -1.121516  -0.587770  -0.100104
C    -0.640670  0.412660  0.905277
O    0.583882  0.759566  0.789300
H    -1.000120  -0.172906  -1.109777
H    -2.161536  -0.891247  0.063237
H    -0.476260  -1.476928  -0.042126
N    -1.512954  0.857263  1.827810
C    -1.355649  1.482663  3.170204
C    -1.356627  3.025847  3.159563
O    -0.504508  3.751805  2.528032
H    -2.454343  0.502983  1.673890
H    -2.284431  1.194394  3.677365
C    -0.204502  0.902222  4.024800
C    -0.312045  1.213024  5.528497
C    -1.536233  0.606245  6.204878
O    -1.524126  -0.390767  6.878604
O    -2.681194  1.322104  5.959928
H    0.785586  1.270598  3.692425
H    -0.176798  -0.184605  3.860357
H    -0.312678  2.295795  5.719077
H    0.564288  0.788128  6.030423
N    -2.274539  3.622278  3.892396
C    -2.401390  5.073889  4.066104
H    -2.918068  3.021990  4.411034
H    -3.040795  5.490714  3.277010
H    -1.413931  5.542448  4.013871
H    -2.859627  5.265254  5.040679
H    -3.406334  0.897974  6.468288
Hg    1.188883  2.698156  1.609109
