29
Energy: -573095.008403 eV PBE+vdW (tier 2 basis)
C    -0.963686  -1.638838  0.498736
C    -0.474650  -0.690666  1.549167
O    0.806731  -0.714883  1.723587
H    -0.395270  -2.575397  0.559849
H    -0.755387  -1.202617  -0.490510
H    -2.036298  -1.842841  0.589879
N    -1.367812  0.088580  2.165252
C    -1.420043  0.817327  3.477085
C    -0.812036  2.236627  3.521700
O    0.452861  2.503406  3.630327
H    -2.332553  -0.174927  1.933337
H    -2.502075  0.966744  3.573838
C    -1.015274  -0.041273  4.697326
C    -1.671511  -1.435895  4.755297
C    -3.155401  -1.474413  4.409386
O    -3.646352  -0.899266  3.442447
O    -3.841502  -2.235713  5.253107
H    -1.288062  0.541101  5.590143
H    0.077134  -0.183901  4.766279
H    -1.513082  -1.860103  5.753395
H    -1.177193  -2.125978  4.052863
N    -1.652383  3.248304  3.561491
C    -1.275218  4.661572  3.683623
H    -2.648652  3.033719  3.562468
H    -1.239603  4.946860  4.743664
H    -2.031921  5.263895  3.171703
H    -0.291847  4.821189  3.232649
H    -4.778556  -2.283891  4.965557
Hg    1.599667  0.894313  2.843175
