29
Energy: -573095.105573 eV PBE+vdW (tier 2 basis)
C    -1.145256  2.417438  1.315871
C    -0.238112  1.311875  1.699476
O    1.009165  1.677177  1.860141
H    -0.856736  3.323064  1.863949
H    -2.200848  2.194957  1.491993
H    -1.001907  2.637637  0.245675
N    -0.608447  0.058651  1.858121
C    -1.959278  -0.509064  1.725799
C    -1.955731  -1.790999  2.602779
O    -0.839466  -2.320329  2.864131
H    0.071720  -0.656114  2.153586
H    -2.678793  0.198761  2.156669
C    -2.378531  -0.772476  0.247006
C    -1.372969  -1.443165  -0.705626
C    -0.800281  -2.723395  -0.062761
O    -1.613603  -3.637799  0.246113
O    0.425018  -2.694367  0.254939
H    -2.615755  0.205232  -0.199641
H    -3.316070  -1.341939  0.260897
H    -0.533031  -0.791112  -0.961978
H    -1.890032  -1.729333  -1.630477
N    -3.108418  -2.280268  3.043106
C    -4.477164  -1.806089  2.828992
H    -3.012781  -3.131448  3.597487
H    -5.049731  -1.975722  3.747027
H    -4.955804  -2.357360  2.008498
H    -4.498124  -0.734560  2.609471
H    1.633976  0.960709  2.093530
Hg    0.006412  -4.443565  1.745453
