29
Energy: -573095.084013 eV PBE+vdW (tier 2 basis)
C    -1.533909  -1.885298  0.554475
C    -0.908406  -0.698980  1.217129
O    0.317197  -0.514229  1.257965
H    -1.157687  -2.794064  1.045016
H    -1.191905  -1.929886  -0.487784
H    -2.628597  -1.889505  0.582383
N    -1.757266  0.220445  1.796957
C    -1.343526  1.330553  2.646697
C    -0.453977  2.424853  2.001877
O    -0.611843  3.686073  2.372296
H    -2.752854  0.124741  1.622828
H    -2.291942  1.856811  2.846350
C    -0.698090  0.856309  4.003506
C    -1.663052  0.521280  5.160424
C    -2.128006  1.588631  6.141621
O    -2.041044  2.854630  6.049757
O    -2.707357  1.212832  7.243526
H    0.086919  1.554280  4.345387
H    -0.127506  -0.052657  3.770517
H    -1.188754  -0.253731  5.784476
H    -2.583033  0.043191  4.777759
N    0.448691  2.117889  1.123777
C    1.357234  3.043902  0.446830
H    0.543319  1.069462  0.981961
H    2.350472  2.583200  0.413462
H    1.393071  4.003163  0.969334
H    1.008530  3.200292  -0.582708
H    -2.756034  0.241639  7.364256
Hg    -1.333258  3.720551  4.294401
