29
Energy: -573095.396748 eV PBE+vdW (tier 2 basis)
C    0.662891  1.884321  -0.729847
C    -0.041532  1.209511  0.405461
O    0.707877  0.495742  1.160589
H    1.477240  2.497956  -0.318277
H    0.006217  2.519565  -1.333855
H    1.132811  1.123086  -1.367152
N    -1.362909  1.426488  0.532706
C    -2.396606  1.172547  1.580148
C    -1.871384  1.345259  3.017601
O    -1.353993  0.383444  3.644043
H    -1.721859  2.008126  -0.221479
H    -3.095005  2.004201  1.418268
C    -3.311829  -0.071276  1.361824
C    -2.783349  -1.522891  1.173355
C    -2.532491  -2.383413  2.401056
O    -1.397944  -2.594845  2.910843
O    -3.514198  -3.015631  2.984075
H    -3.871524  0.145741  0.442114
H    -4.059773  -0.045736  2.168346
H    -1.878443  -1.542188  0.545517
H    -3.542941  -2.051015  0.575895
N    -2.038781  2.523279  3.613773
C    -2.673688  3.746232  3.109500
H    -1.702831  2.541614  4.578169
H    -3.762590  3.630394  3.027425
H    -2.247380  4.050081  2.146217
H    -2.473530  4.546887  3.827363
H    -4.372711  -2.929147  2.523928
Hg    -0.020356  -1.062902  2.377639
