29
Energy: -573095.164307 eV PBE+vdW (tier 2 basis)
C    -3.913085  -0.432228  -0.104797
C    -2.915168  -0.438766  1.011256
O    -1.722217  -0.753470  0.722452
H    -3.599560  0.303698  -0.858308
H    -4.926051  -0.193264  0.238437
H    -3.908707  -1.415179  -0.593742
N    -3.343446  -0.111429  2.255180
C    -2.435048  0.043069  3.379005
C    -2.119193  -1.293420  4.088990
O    -0.987577  -1.841721  3.859712
H    -4.329454  0.117284  2.358520
H    -1.488202  0.266625  2.891222
C    -2.604675  1.299274  4.259536
C    -1.635089  2.414126  3.792091
C    -0.150949  2.111033  3.941246
O    0.516518  1.217518  3.376219
O    0.443950  2.953437  4.758801
H    -2.410341  1.049560  5.311312
H    -3.629691  1.691491  4.218568
H    -1.837720  3.332605  4.353788
H    -1.811689  2.641628  2.728337
N    -2.964242  -1.881212  4.915307
C    -4.277529  -1.425496  5.372145
H    -2.631328  -2.766091  5.305674
H    -5.020568  -2.204476  5.163157
H    -4.574856  -0.505885  4.862674
H    -4.251504  -1.239614  6.453010
H    1.408937  2.772162  4.812353
Hg    0.107484  -0.828261  2.131851
