29
Energy: -573094.535015 eV PBE+vdW (tier 2 basis)
C    -0.729661  -0.673736  -0.368057
C    -0.501615  -0.158458  1.020397
O    0.505891  0.471723  1.349449
H    -0.122569  -0.097029  -1.072076
H    -1.790621  -0.607770  -0.645499
H    -0.416467  -1.726952  -0.423452
N    -1.464758  -0.416895  1.978433
C    -1.271566  0.009938  3.340886
C    -0.743679  -1.195014  4.207517
O    -1.609688  -2.071253  4.496441
H    -2.238323  -1.038160  1.746659
H    -0.436130  0.732471  3.289969
C    -2.549802  0.671204  3.898724
C    -2.561357  1.161294  5.368643
C    -2.771779  0.011394  6.329184
O    -1.789033  -0.573381  6.810230
O    -3.980721  -0.460523  6.574463
H    -3.422131  0.032784  3.696598
H    -2.684122  1.572669  3.281800
H    -3.376245  1.890617  5.482373
H    -1.627259  1.671353  5.634763
N    0.528611  -1.242326  4.556418
C    1.594632  -0.252193  4.330065
H    0.794782  -2.064802  5.099958
H    2.537916  -0.708616  4.642459
H    1.426904  0.645285  4.940110
H    1.660234  0.018976  3.270429
H    -4.697840  0.096338  6.210955
Hg    -1.843156  -2.972427  6.680302
