29
Energy: -573094.824748 eV PBE+vdW (tier 2 basis)
C    -0.024195  -0.581081  0.182718
C    0.135528  -0.227863  1.631190
O    1.216623  0.354108  1.951585
H    0.830866  -1.190695  -0.136251
H    0.002454  0.345285  -0.409343
H    -0.961486  -1.111280  -0.021358
N    -0.867009  -0.539376  2.476071
C    -1.105072  -0.040719  3.840634
C    -0.479285  -0.992358  4.893471
O    0.730500  -0.845931  5.274803
H    -1.638594  -1.052591  2.054043
H    -0.553427  0.908299  3.950064
C    -2.598357  0.254501  4.059801
C    -3.082139  1.456521  3.229932
C    -4.555677  1.790759  3.422762
O    -4.970440  2.930373  3.376485
O    -5.329997  0.712435  3.610595
H    -2.749142  0.466841  5.127712
H    -3.207920  -0.631347  3.818640
H    -2.958307  1.281800  2.148792
H    -2.518491  2.366340  3.472529
N    -1.203457  -1.967791  5.405582
C    -0.713954  -2.937114  6.396045
H    -2.188736  -2.011295  5.155087
H    -1.339947  -3.831958  6.339670
H    -0.775917  -2.510225  7.405422
H    0.326853  -3.193020  6.175802
H    -6.265320  0.999430  3.689309
Hg    2.050611  0.499971  4.041981
