29
Energy: -573094.850966 eV PBE+vdW (tier 2 basis)
C    0.279642  0.566744  -0.273518
C    -0.117566  -0.470815  0.708228
O    0.407526  -1.636917  0.549230
H    -0.218652  1.527320  -0.111194
H    0.050489  0.200450  -1.285112
H    1.370145  0.702582  -0.231880
N    -0.979378  -0.168031  1.685146
C    -1.451658  -1.116175  2.698223
C    -2.974079  -1.166819  2.936047
O    -3.560298  -2.308308  2.960975
H    -1.253907  0.809801  1.738557
H    -1.312131  -2.086292  2.211986
C    -0.630153  -1.097867  4.020800
C    0.615990  -2.054678  4.029463
C    0.054425  -3.364311  3.504267
O    -0.626828  -4.047162  4.373275
O    0.001829  -3.566834  2.267225
H    -1.281879  -1.384758  4.856962
H    -0.276918  -0.078052  4.225141
H    0.984785  -2.141040  5.056963
H    1.427379  -1.704071  3.381351
N    -3.718964  -0.092869  3.132123
C    -3.317987  1.314320  3.214867
H    -4.715430  -0.289315  3.250950
H    -3.413105  1.811255  2.239579
H    -2.302988  1.413582  3.614902
H    -3.990763  1.817245  3.917823
H    0.260526  -2.379364  1.245077
Hg    -2.487283  -4.272288  3.295402
