29
Energy: -573095.656168 eV PBE+vdW (tier 2 basis)
C    0.776187  1.756357  -0.745074
C    0.009626  1.120716  0.373131
O    0.626503  0.173790  0.978572
H    0.247907  2.594044  -1.212862
H    1.008120  0.994799  -1.501880
H    1.738014  2.113188  -0.349901
N    -1.214575  1.605847  0.639748
C    -2.225807  1.446896  1.728628
C    -1.604461  1.324062  3.131235
O    -1.273153  0.203925  3.605205
H    -1.477701  2.338990  -0.015443
H    -2.732851  2.420522  1.712306
C    -3.393425  0.458219  1.441037
C    -3.189621  -1.040379  1.087353
C    -3.072199  -2.048313  2.208698
O    -2.000286  -2.583426  2.613003
O    -4.210351  -2.413038  2.727732
H    -3.924107  0.883352  0.578506
H    -4.095838  0.545607  2.282869
H    -2.345032  -1.183152  0.394625
H    -4.085433  -1.343662  0.525655
N    -1.487523  2.423953  3.870553
C    -1.870589  3.806024  3.560075
H    -1.109925  2.248996  4.803248
H    -2.961515  3.930931  3.560707
H    -1.448827  4.131566  2.602091
H    -1.456293  4.450621  4.340634
H    -4.091057  -3.082201  3.439939
Hg    -0.338787  -1.326229  2.102606
