29
Energy: -573094.994684 eV PBE+vdW (tier 2 basis)
C    0.450773  0.830072  -0.224591
C    0.263337  0.315688  1.172796
O    1.279755  -0.313294  1.633829
H    1.309023  1.516721  -0.232349
H    -0.430683  1.350926  -0.614241
H    0.705103  -0.009313  -0.885136
N    -0.909207  0.577943  1.768605
C    -1.566743  0.391239  3.102670
C    -0.705571  0.818373  4.299400
O    0.283327  0.137861  4.706524
H    -1.525926  1.083195  1.136340
H    -2.378705  1.125455  3.043232
C    -2.332831  -0.945888  3.304523
C    -1.613328  -2.304340  3.427996
C    -1.025118  -2.599196  4.788962
O    -1.538098  -2.577011  5.855342
O    0.383484  -3.012965  4.684835
H    -3.025668  -1.028156  2.455997
H    -2.968418  -0.807464  4.192580
H    -0.900198  -2.487022  2.609883
H    -2.382700  -3.084390  3.298166
N    -1.060279  1.902877  4.978681
C    -2.189026  2.819722  4.768763
H    -0.469690  2.084331  5.792228
H    -2.184206  3.232187  3.752804
H    -2.071538  3.653866  5.466348
H    -3.148174  2.331009  4.982366
H    0.706485  -3.218654  5.593480
Hg    1.337823  -1.443772  3.419970
