29
Energy: -573095.703903 eV PBE+vdW (tier 2 basis)
C    0.372228  0.570540  0.230106
C    0.061150  0.192146  1.645234
O    0.997188  0.004013  2.457852
H    0.792012  1.587318  0.229279
H    -0.498965  0.546188  -0.433499
H    1.153366  -0.093651  -0.159198
N    -1.251331  0.075389  1.983724
C    -1.834570  -0.204642  3.302025
C    -1.432635  0.895601  4.323066
O    -0.413224  0.831708  5.102657
H    -1.916993  0.238843  1.233858
H    -2.906756  -0.052438  3.140997
C    -1.710250  -1.682793  3.851486
C    -0.930714  -2.740769  3.023942
C    0.236229  -3.430808  3.694642
O    1.135335  -2.898504  4.404701
O    0.293640  -4.710153  3.452184
H    -2.738612  -2.052220  3.938749
H    -1.372018  -1.665239  4.901107
H    -0.517754  -2.306433  2.097871
H    -1.608791  -3.532728  2.687798
N    -2.188875  1.974343  4.420464
C    -3.435410  2.300522  3.714478
H    -1.849650  2.663065  5.095333
H    -3.267905  2.385513  2.634145
H    -3.778232  3.271449  4.082531
H    -4.219334  1.563069  3.927871
H    1.091829  -5.125569  3.852212
Hg    0.945041  -0.764760  4.663389
