29
Energy: -573095.242081 eV PBE+vdW (tier 2 basis)
C    0.310576  1.929473  1.794310
C    0.135351  0.450646  1.916946
O    1.216291  -0.230464  2.029944
H    -0.641460  2.460683  1.685307
H    0.972505  2.151560  0.947105
H    0.819854  2.293527  2.700069
N    -1.110154  -0.058760  1.903054
C    -1.635889  -1.336617  2.460582
C    -1.872401  -2.380565  1.342260
O    -0.877957  -3.045845  0.820125
H    -1.837121  0.634159  1.726827
H    -0.856557  -1.762197  3.116964
C    -2.841359  -0.958777  3.347694
C    -3.549766  -2.095165  4.114243
C    -4.936595  -2.388822  3.570027
O    -5.236012  -2.272678  2.380561
O    -5.780736  -2.785024  4.504296
H    -3.575635  -0.412887  2.734701
H    -2.454578  -0.234901  4.076871
H    -3.638562  -1.846718  5.177857
H    -2.989546  -3.044416  4.082241
N    -3.072234  -2.632413  0.900579
C    -3.365597  -3.588929  -0.175158
H    -3.918601  -2.278791  1.441423
H    -4.426088  -3.495092  -0.421789
H    -3.155043  -4.614467  0.155422
H    -2.753375  -3.367387  -1.056243
H    -6.653525  -2.992381  4.105720
Hg    1.041215  -2.297754  1.400061
