29
Energy: -573095.003277 eV PBE+vdW (tier 2 basis)
C    -3.808437  -0.869103  -0.059654
C    -2.841064  -0.700268  1.069231
O    -1.644468  -1.070413  0.876210
H    -3.508529  -0.204622  -0.882809
H    -4.839284  -0.639414  0.233437
H    -3.748651  -1.897685  -0.436748
N    -3.293961  -0.164801  2.231000
C    -2.375096  0.162452  3.306364
C    -2.033454  -1.056662  4.196306
O    -0.853557  -1.545170  4.138080
H    -4.272936  0.107664  2.270851
H    -1.449171  0.362184  2.766494
C    -2.544665  1.495143  4.053790
C    -1.192036  1.920044  4.696219
C    -0.051026  2.222678  3.726307
O    0.483046  1.411105  2.944304
O    0.450835  3.439860  3.695315
H    -3.300883  1.454710  4.846992
H    -2.874725  2.254422  3.330440
H    -0.824406  1.134008  5.375248
H    -1.378608  2.798189  5.326942
N    -2.905810  -1.607199  5.022356
C    -4.277949  -1.210900  5.341230
H    -2.543838  -2.417354  5.531877
H    -4.332453  -0.840351  6.372756
H    -4.928652  -2.088499  5.246818
H    -4.636711  -0.435424  4.661439
H    0.025391  4.051770  4.326983
Hg    0.212098  -0.851365  2.258220
