29
Energy: -573095.242286 eV PBE+vdW (tier 2 basis)
C    -0.923674  0.607083  -0.278957
C    -0.813601  -0.005359  1.082973
O    0.322568  -0.445924  1.431160
H    -1.947250  0.916885  -0.518379
H    -0.569758  -0.115908  -1.025456
H    -0.256145  1.478524  -0.332338
N    -1.925031  -0.052956  1.856343
C    -1.902176  -0.489347  3.242805
C    -2.028209  -2.022724  3.390347
O    -0.973693  -2.706122  3.608869
H    -2.780468  0.329738  1.459126
H    -0.872249  -0.306243  3.545122
C    -2.666613  0.384316  4.257632
C    -1.696774  1.390850  4.925286
C    -0.574687  0.782082  5.756976
O    0.330463  0.004925  5.385074
O    -0.611439  1.197221  7.005840
H    -3.128209  -0.250716  5.025840
H    -3.484165  0.944501  3.783526
H    -2.259840  2.064638  5.580230
H    -1.218952  2.018774  4.155530
N    -3.206276  -2.607480  3.288297
C    -3.433581  -4.055502  3.397081
H    -4.025478  -2.013397  3.179871
H    -2.539278  -4.588827  3.062921
H    -4.286540  -4.321342  2.765569
H    -3.651998  -4.326689  4.437871
H    0.144305  0.835249  7.520154
Hg    0.898011  -1.401881  3.449920
