29
Energy: -573095.128051 eV PBE+vdW (tier 2 basis)
C    0.912819  -0.065345  -0.040987
C    0.384635  -0.062182  1.351120
O    1.275293  0.140766  2.274146
H    1.731001  -0.796375  -0.113133
H    1.346095  0.919615  -0.266332
H    0.141158  -0.308977  -0.779481
N    -0.913235  -0.270152  1.567891
C    -1.652123  -0.434537  2.838593
C    -2.937709  -1.297047  2.509764
O    -3.991730  -0.698821  2.338390
H    -1.480018  -0.352592  0.723091
H    -1.026454  -1.030866  3.526750
C    -2.123718  0.923755  3.423999
C    -2.554582  0.926747  4.902537
C    -1.546388  1.117911  6.015779
O    -0.275224  1.110535  5.940634
O    -1.968507  1.322370  7.227831
H    -3.027455  1.175283  2.844376
H    -1.417587  1.743334  3.206031
H    -3.115659  0.006669  5.147070
H    -3.293615  1.734504  5.035953
N    -2.774796  -2.629141  2.412370
C    -1.567218  -3.423827  2.634073
H    -3.631253  -3.128964  2.176932
H    -1.802775  -4.466856  2.403855
H    -1.236121  -3.388772  3.681733
H    -0.746374  -3.122846  1.969566
H    -2.944130  1.365592  7.311600
Hg    0.678724  0.647205  4.168479
