29
Energy: -573095.314495 eV PBE+vdW (tier 2 basis)
C    -1.693009  -1.913088  1.171755
C    -0.790128  -0.905859  1.816105
O    0.346504  -0.771938  1.212939
H    -1.743361  -1.715887  0.092430
H    -2.698021  -1.892320  1.606181
H    -1.249744  -2.911839  1.293769
N    -1.216558  -0.278197  2.912100
C    -0.740298  0.974071  3.536866
C    0.370030  0.752499  4.604038
O    1.623121  0.839305  4.297981
H    -2.242434  -0.460704  3.145836
H    -0.269075  1.609032  2.763142
C    -1.938432  1.770871  4.105671
C    -3.091011  2.069343  3.129190
C    -4.108811  0.947368  3.037839
O    -3.836691  -0.241977  3.224993
O    -5.318112  1.382506  2.735392
H    -1.536897  2.722905  4.477577
H    -2.363796  1.243314  4.973832
H    -2.729819  2.280774  2.109104
H    -3.610122  2.982844  3.444985
N    0.049484  0.517057  5.855770
C    1.005135  0.296805  6.948919
H    -0.937703  0.555922  6.104027
H    0.536699  -0.361986  7.686386
H    1.256017  1.254713  7.423772
H    1.917080  -0.159512  6.553995
H    -5.941571  0.627874  2.666833
Hg    1.890523  0.308108  2.218572
