29
Energy: -573094.871201 eV PBE+vdW (tier 2 basis)
C    -1.250711  -0.613603  -0.196993
C    -0.783596  -0.444568  1.216590
O    0.482209  -0.555793  1.380458
H    -0.753616  0.130449  -0.833554
H    -2.338497  -0.528798  -0.298076
H    -0.933312  -1.604396  -0.553650
N    -1.699656  -0.195668  2.164602
C    -1.689201  -0.305410  3.651541
C    -1.147652  0.957584  4.352336
O    0.106123  1.144721  4.605865
H    -2.640872  -0.110407  1.786962
H    -2.754257  -0.359515  3.917625
C    -1.105395  -1.628899  4.185110
C    -1.439086  -1.923887  5.653543
C    -2.930562  -2.037979  5.947859
O    -3.792144  -1.398833  5.357664
O    -3.171250  -2.889492  6.937595
H    -0.004857  -1.694626  4.077186
H    -1.497096  -2.429759  3.541410
H    -1.040177  -1.148664  6.328694
H    -0.952711  -2.859593  5.956302
N    -1.978966  1.881606  4.791587
C    -3.449800  1.919827  4.779287
H    -1.514274  2.686182  5.221608
H    -3.771115  2.549141  5.614844
H    -3.875758  0.920895  4.914238
H    -3.804541  2.372542  3.844099
H    -4.133217  -2.911100  7.130144
Hg    1.435635  0.121429  3.214164
