29
Energy: -573095.369793 eV PBE+vdW (tier 2 basis)
C    0.742158  0.479207  0.544821
C    -0.513117  1.091030  1.065639
O    -0.808807  2.265867  0.661846
H    1.146472  -0.289503  1.211709
H    1.487042  1.274301  0.411795
H    0.555775  0.055667  -0.454486
N    -1.315268  0.449643  1.938768
C    -1.488937  -0.979927  2.262115
C    -1.291877  -1.901924  1.057429
O    -1.850101  -1.686483  -0.088775
H    -2.006140  1.044979  2.395354
H    -0.756975  -1.270416  3.032236
C    -2.906374  -1.159306  2.895666
C    -4.168070  -0.959402  2.006347
C    -4.039979  0.301982  1.158253
O    -4.350369  1.418202  1.711349
O    -3.486605  0.241440  0.022811
H    -2.946360  -0.477992  3.758853
H    -2.961881  -2.173234  3.314430
H    -5.037794  -0.876517  2.668072
H    -4.328837  -1.809033  1.331772
N    -0.561911  -2.981093  1.209798
C    -0.361466  -4.033203  0.203506
H    -0.092042  -3.107048  2.105192
H    -0.508317  -5.006858  0.684022
H    0.663418  -3.974898  -0.184439
H    -1.074916  -3.903286  -0.612919
H    -2.538986  -0.901767  -0.102536
Hg    -3.004776  2.728963  0.520364
