25
Energy: -35690.7186304 eV PBE+vdW (tier 2 basis)
N    0.402144  -0.506609  -0.192734
C    0.632212  -0.886627  1.205477
C    2.163704  -1.038712  1.327484
O    2.732005  -1.365453  2.402620
H    -0.124412  -1.196395  -0.729963
H    1.995956  -0.560900  -0.399352
H    0.348809  -0.056218  1.870775
C    -0.121460  -2.175778  1.627987
C    0.150728  -2.697393  3.023662
C    -0.171073  -1.949494  4.181378
C    0.683170  -3.987553  3.224606
C    0.024125  -2.459326  5.469656
C    0.881072  -4.523093  4.509451
C    0.510527  -3.778841  5.653970
O    0.609634  -4.213536  6.914266
H    0.102299  -2.969962  0.900959
H    -1.197618  -1.964091  1.538339
H    -0.602087  -0.951307  4.084485
H    0.941201  -4.605158  2.362434
H    -0.262785  -1.880119  6.348431
H    1.262836  -5.540771  4.614273
H    0.820309  -5.164304  6.972942
O    2.806721  -0.802785  0.249288
H    -0.047870  0.401685  -0.303309
Ca    2.547852  -2.294260  4.289875
