25
Energy: -35690.3014147 eV PBE+vdW (tier 2 basis)
N    -0.630417  0.016842  0.020736
C    0.095078  -0.310604  1.204740
C    1.626212  -0.400688  1.109059
O    2.362611  -0.521354  2.123676
H    -0.549271  -0.660741  -0.735179
H    -0.455698  0.953198  -0.336624
H    -0.077033  0.492918  1.944070
C    -0.462738  -1.644325  1.809018
C    -0.014646  -2.008499  3.202265
C    -0.378896  -1.224296  4.325111
C    0.744049  -3.170928  3.456789
C    -0.005936  -1.574911  5.627454
C    1.127483  -3.544461  4.756937
C    0.718759  -2.770444  5.868992
O    0.987660  -3.064288  7.144813
H    -0.244571  -2.470719  1.118186
H    -1.553743  -1.510343  1.799285
H    -0.987089  -0.328123  4.185399
H    1.036184  -3.815214  2.625599
H    -0.327605  -0.976658  6.481202
H    1.687283  -4.469899  4.907734
H    1.362639  -3.957811  7.258520
O    2.121758  -0.336902  -0.094299
H    3.103192  -0.384904  -0.089990
Ca    2.324735  -1.099847  4.205505
