25
Energy: -35690.3994843 eV PBE+vdW (tier 2 basis)
N    -0.520261  -0.407493  -0.189461
C    -0.045661  -0.259237  1.236959
C    1.477343  -0.215373  1.227135
O    2.111669  -0.139095  0.110893
H    -1.374274  0.131442  -0.378212
H    0.221763  -0.124028  -0.849008
H    -0.379641  0.720462  1.611816
C    -0.649964  -1.400442  2.104904
C    -0.528717  -2.742370  1.431203
C    0.604865  -3.554153  1.600037
C    -1.553930  -3.208243  0.580479
C    0.718946  -4.777228  0.946983
C    -1.447143  -4.422857  -0.089275
C    -0.304415  -5.219031  0.088228
O    -0.270698  -6.389798  -0.575400
H    -1.703122  -1.149665  2.293873
H    -0.142689  -1.371113  3.077470
H    1.386259  -3.253684  2.301232
H    -2.490595  -2.649246  0.496832
H    1.588777  -5.411488  1.124842
H    -2.253577  -4.791058  -0.721547
H    0.520040  -6.907255  -0.345679
O    2.111092  -0.206766  2.332741
H    -0.731042  -1.430663  -0.331836
Ca    3.999736  0.017636  1.265995
