25
Energy: -35690.4333851 eV PBE+vdW (tier 2 basis)
N    -0.213492  -0.473235  -0.256407
C    -0.106599  0.072221  1.148457
C    1.345139  0.466961  1.391452
O    1.702374  0.857032  2.550636
H    0.584307  -0.155889  -0.829806
H    -1.095267  -0.211861  -0.714154
H    -0.699400  0.997611  1.207572
C    -0.650937  -0.986451  2.149563
C    -0.079969  -2.353030  1.873161
C    1.160389  -2.751436  2.406836
C    -0.759384  -3.259903  1.037763
C    1.705847  -3.991884  2.112348
C    -0.220151  -4.509477  0.728951
C    1.023150  -4.882018  1.260962
O    1.617740  -6.066809  1.026993
H    -1.746764  -0.990747  2.066414
H    -0.415481  -0.629107  3.160123
H    1.674781  -2.101618  3.118288
H    -1.763333  -3.022402  0.674776
H    2.644749  -4.318682  2.557310
H    -0.781645  -5.203712  0.102593
H    1.056953  -6.644064  0.480271
O    2.190188  0.436335  0.422821
H    -0.173592  -1.522636  -0.172987
Ca    3.731398  1.196802  1.827064
