25
Energy: -35690.9249724 eV PBE+vdW (tier 2 basis)
N    1.052779  -0.473520  0.344759
C    0.246304  -0.009422  1.508251
C    1.242455  0.331038  2.616022
O    2.301698  -0.308499  2.708965
H    1.542187  0.330053  -0.066329
H    0.417039  -0.792683  -0.393619
H    -0.371892  0.868380  1.261449
C    -0.702812  -1.161606  1.995518
C    0.024148  -2.477651  2.163073
C    0.680483  -2.814956  3.365285
C    0.161891  -3.375011  1.078285
C    1.488184  -3.954489  3.471442
C    0.966120  -4.514207  1.160237
C    1.625631  -4.834225  2.372248
O    2.348059  -5.957550  2.385576
H    -1.503505  -1.258970  1.249186
H    -1.188182  -0.852795  2.930922
H    0.579645  -2.172551  4.241242
H    -0.374260  -3.187379  0.146300
H    1.969236  -4.186235  4.423477
H    1.044656  -5.207519  0.322341
H    2.676701  -6.185753  3.275243
O    0.970759  1.239479  3.519866
H    0.147647  1.738933  3.345767
Ca    2.576030  -2.149861  1.458493
