25
Energy: -35689.8881903 eV PBE+vdW (tier 2 basis)
N    -1.245517  -0.499775  0.295659
C    -0.291886  -0.221194  1.431915
C    1.200602  -0.374706  1.064154
O    2.053143  -0.553507  1.891543
H    -0.895304  0.021856  -0.519716
H    -1.108375  -1.479570  0.011328
H    -0.414220  0.845871  1.685840
C    -0.641357  -1.078720  2.662859
C    -2.106346  -0.960924  3.004410
C    -2.652179  0.243253  3.505171
C    -3.010170  -2.018601  2.749106
C    -4.030398  0.404116  3.712765
C    -4.390206  -1.879859  2.947316
C    -4.920010  -0.672793  3.467532
O    -6.237590  -0.630818  3.672169
H    -0.007261  -0.753223  3.497851
H    -0.380485  -2.129470  2.472729
H    -1.991341  1.079090  3.745439
H    -2.628770  -2.976755  2.389831
H    -4.407556  1.342892  4.123996
H    -5.068760  -2.715280  2.768658
H    -6.526310  0.170756  4.148129
O    1.381695  -0.239168  -0.267731
H    2.341106  -0.294705  -0.463050
Ca    -3.543603  -0.099910  0.974173
