25
Energy: -35689.4077041 eV PBE+vdW (tier 2 basis)
N    -0.117704  0.402226  0.259714
C    0.255924  -0.054579  1.560752
C    1.702858  -0.570070  1.638631
O    2.446171  -0.925879  0.795694
H    -0.116678  -0.327259  -0.453268
H    0.432938  1.191591  -0.074579
H    0.193319  0.801573  2.256600
C    -0.736901  -1.161296  2.033446
C    -0.752999  -1.451572  3.513184
C    -0.234405  -2.654649  4.048103
C    -1.334881  -0.541981  4.426930
C    -0.288264  -2.940654  5.419052
C    -1.402268  -0.809273  5.804086
C    -0.920711  -2.041417  6.314582
O    -0.986422  -2.412072  7.594982
H    -0.550324  -2.085307  1.469198
H    -1.726325  -0.795135  1.724324
H    0.209987  -3.393830  3.378845
H    -1.768602  0.390390  4.058255
H    0.087238  -3.888777  5.807283
H    -1.892183  -0.093785  6.468025
H    -1.544108  -1.822396  8.137132
O    2.246226  -0.558736  3.065263
H    3.198722  -0.744895  2.914581
Ca    1.276984  -0.702646  5.099205
