25
Energy: -35689.67694 eV PBE+vdW (tier 2 basis)
N    -1.260494  -1.379167  -0.038890
C    -0.890318  -0.606572  1.140799
C    0.532224  -0.150167  0.801080
O    1.515210  -0.980616  0.866148
H    -2.247910  -1.312142  -0.274263
H    -0.976302  -2.356406  0.009250
H    -1.511014  0.298224  1.149680
C    -1.022076  -1.398273  2.454586
C    -0.760182  -0.594373  3.793420
C    -1.739906  0.496450  4.013767
C    -0.653542  -1.552647  4.917677
C    -2.517799  0.571043  5.122063
C    -1.436742  -1.483474  6.025803
C    -2.387752  -0.424663  6.140284
O    -3.184923  -0.292094  7.172254
H    -0.319801  -2.243637  2.432005
H    -2.037426  -1.814683  2.496623
H    -1.835977  1.267439  3.248027
H    0.078287  -2.357301  4.826640
H    -3.243852  1.369224  5.273050
H    -1.346363  -2.218457  6.827501
H    -3.061247  -0.989600  7.848237
O    0.725773  1.021218  0.310680
H    0.241637  -0.129662  3.666464
Ca    2.620840  0.339908  -0.464344
