25
Energy: -35689.7175862 eV PBE+vdW (tier 2 basis)
N    0.000631  0.244633  0.336972
C    0.222651  0.010197  1.799683
C    1.619330  -0.512281  2.006732
O    2.239091  -1.068368  1.061063
H    -1.007295  0.026423  0.188172
H    0.068947  1.252462  0.153674
H    0.065038  0.939870  2.365410
C    -0.811175  -1.067590  2.329976
C    -2.202672  -0.738285  1.877218
C    -2.928757  0.316453  2.467085
C    -2.816294  -1.476180  0.848076
C    -4.214370  0.616989  2.053797
C    -4.110955  -1.187837  0.424373
C    -4.820910  -0.135556  1.027008
O    -6.075489  0.208897  0.693310
H    -0.727714  -1.093321  3.425548
H    -0.511002  -2.061863  1.964420
H    -2.493894  0.892587  3.286317
H    -2.302947  -2.338953  0.415347
H    -4.786675  1.415161  2.524149
H    -4.582595  -1.796752  -0.347784
H    -6.441093  -0.382106  0.012035
O    2.196777  -0.503589  3.176057
H    1.679671  -0.051442  3.873396
Ca    1.607252  -1.015469  -0.960489
