25
Energy: -35691.1034625 eV PBE+vdW (tier 2 basis)
N    1.264046  -1.976464  0.988615
C    0.209297  -0.921288  1.031238
C    0.908136  0.365453  1.444571
O    1.888236  0.350989  2.212273
H    0.818398  -2.878116  0.789885
H    1.869796  -1.808184  0.176674
H    -0.280378  -0.768411  0.059058
C    -0.888734  -1.299745  2.084935
C    -0.293981  -1.723241  3.409674
C    0.046234  -0.781055  4.407108
C    0.049299  -3.070434  3.655097
C    0.753880  -1.146620  5.555150
C    0.753004  -3.461145  4.801741
C    1.098751  -2.500966  5.781887
O    1.742538  -2.776419  6.919620
H    -1.483447  -2.116424  1.653006
H    -1.570847  -0.447606  2.201979
H    -0.237197  0.265367  4.286019
H    -0.239628  -3.842683  2.940054
H    0.994848  -0.410263  6.322360
H    0.980700  -4.516507  4.962691
H    1.840768  -3.733962  7.077092
O    0.368339  1.453832  0.962453
H    0.832398  2.260531  1.279475
Ca    2.359541  -1.628640  3.214344
