25
Energy: -35689.7389319 eV PBE+vdW (tier 2 basis)
N    -0.104604  0.923224  1.072885
C    0.028458  -0.112748  2.145076
C    1.479157  -0.229300  2.531813
O    2.380918  0.118365  1.723793
H    -0.434378  1.797144  1.498698
H    -0.904004  0.598947  0.489168
H    -0.593137  0.149046  3.013498
C    -0.461860  -1.517425  1.594474
C    -1.778620  -1.385919  0.890076
C    -1.834822  -1.343093  -0.518434
C    -2.984581  -1.284017  1.606936
C    -3.041576  -1.205922  -1.190913
C    -4.198858  -1.150976  0.948741
C    -4.238241  -1.106924  -0.458824
O    -5.372339  -0.984928  -1.167892
H    -0.514625  -2.205949  2.448976
H    0.302352  -1.917887  0.909947
H    -0.922888  -1.494765  -1.103338
H    -2.982238  -1.338395  2.697185
H    -3.090252  -1.210336  -2.278618
H    -5.125163  -1.097953  1.522381
H    -6.155399  -0.968049  -0.589942
O    1.858392  -0.781859  3.650638
H    1.120429  -1.021567  4.247275
Ca    2.011731  1.204183  -0.061100
