25
Energy: -35689.6634225 eV PBE+vdW (tier 2 basis)
N    0.228040  -0.626398  0.753312
C    -0.633337  0.316941  1.562072
C    0.358785  1.217968  2.315772
O    1.369609  1.628136  1.673801
H    -0.374753  -1.077956  0.055329
H    0.508594  -1.396329  1.377681
H    -1.098914  1.000996  0.830372
C    -1.771158  -0.343278  2.379314
C    -1.379988  -0.826058  3.753988
C    -1.765058  -0.081095  4.891046
C    -0.602324  -1.977880  3.956545
C    -1.360548  -0.450188  6.172164
C    -0.197819  -2.361435  5.231657
C    -0.562904  -1.592200  6.352472
O    -0.214187  -1.895459  7.614355
H    -2.188564  -1.157675  1.766231
H    -2.579981  0.396356  2.464972
H    -2.452835  0.762775  4.782257
H    -0.357583  -2.634975  3.117670
H    -1.679262  0.115318  7.046511
H    0.379622  -3.277261  5.365759
H    0.291370  -2.725441  7.658634
O    0.200379  1.591494  3.530382
H    -0.500359  1.032874  4.023167
Ca    2.148650  0.670031  -0.032954
