25
Energy: -35689.640482 eV PBE+vdW (tier 2 basis)
N    -0.305602  -0.102762  0.208334
C    0.323237  -0.167595  1.503953
C    1.826696  -0.330909  1.309643
O    2.284804  -0.915722  0.263450
H    -1.275633  0.203137  0.245492
H    -0.228288  -0.959757  -0.337268
H    0.186443  0.804956  1.999398
C    -0.250666  -1.294654  2.422443
C    0.168948  -1.279129  3.954659
C    -0.307911  -0.066100  4.658571
C    -0.277524  -2.551764  4.566304
C    -1.155924  -0.118899  5.717090
C    -1.134028  -2.606505  5.619225
C    -1.595663  -1.390983  6.203923
O    -2.426498  -1.515373  7.211470
H    0.019495  -2.274416  2.002639
H    -1.344732  -1.217519  2.373272
H    0.041987  0.905217  4.306763
H    0.081669  -3.480597  4.119849
H    -1.499977  0.792453  6.209327
H    -1.478581  -3.549103  6.043070
H    -2.712280  -0.656791  7.584559
O    2.652954  0.139919  2.180741
H    1.278318  -1.255596  3.959987
Ca    4.267220  -0.222918  0.748586
