18
Energy: -15001.4331962 eV PBE+vdW (tier 2 basis)
N    -0.617678  1.203494  1.051608
C    -0.151559  0.129964  1.943036
C    1.396169  -0.037849  1.747737
O    2.030163  1.000517  1.467080
H    0.201068  1.810249  0.921289
H    -1.346550  1.756643  1.503086
H    -0.246496  0.415543  3.013495
C    -0.969011  -1.153798  1.755532
C    -0.797024  -1.842996  0.380500
C    -0.206680  -3.250397  0.459667
O    -0.742687  -4.211371  -0.086131
O    0.916460  -3.375080  1.156795
H    -2.032524  -0.905379  1.901291
H    -0.706470  -1.853070  2.562244
H    -0.139394  -1.223429  -0.250909
H    -1.750374  -1.927069  -0.152042
O    1.893019  -1.199581  1.947096
H    1.267567  -2.439391  1.514624
