18
Energy: -15001.4477576 eV PBE+vdW (tier 2 basis)
N    -0.759076  1.558003  2.056107
C    -0.217123  0.190474  1.900287
C    1.079104  0.185985  1.014643
O    1.740444  1.244088  1.009567
H    0.063946  2.162109  1.923542
H    -1.342444  1.750991  1.235507
H    0.128933  -0.130757  2.902262
C    -1.334375  -0.771304  1.478983
C    -1.086891  -2.270206  1.785728
C    -0.942903  -3.164750  0.552074
O    -1.673714  -4.136779  0.373487
O    0.010081  -2.821623  -0.296044
H    -1.544776  -0.636669  0.405282
H    -2.242443  -0.454346  2.013798
H    -1.906450  -2.686449  2.382705
H    -0.163996  -2.371500  2.379563
O    1.405318  -0.896457  0.408467
H    0.568366  -1.965810  0.057042
