18
Energy: -15000.6758389 eV PBE+vdW (tier 2 basis)
N    -0.191078  0.174003  -0.010649
C    0.016570  0.023973  1.433737
C    1.513760  0.049027  1.761419
O    2.391314  0.209752  0.933723
H    0.727765  0.269918  -0.452040
H    -0.611146  -0.680677  -0.375777
H    -0.400354  0.913364  1.950501
C    -0.721017  -1.203482  2.010628
C    -0.908334  -1.259611  3.526560
C    -2.208560  -2.068514  3.991273
O    -2.188716  -2.411865  5.197039
O    -3.087552  -2.231464  3.108477
H    -0.228200  -2.121425  1.648322
H    -1.742406  -1.212926  1.594035
H    -1.050673  -0.244498  3.941891
H    -0.067833  -1.731256  4.062110
O    1.835777  -0.073815  3.073135
H    1.022306  -0.332937  3.567663
