18
Energy: -15000.5582857 eV PBE+vdW (tier 2 basis)
N    1.414727  -2.605502  1.993228
C    0.448538  -1.602101  1.519956
C    0.819301  -0.203303  1.990976
O    1.271215  0.079713  3.091379
H    1.557480  -2.466722  2.997487
H    2.323282  -2.432057  1.558791
H    0.396901  -1.619261  0.421569
C    -0.969793  -1.964420  2.007280
C    -2.086261  -1.044482  1.511288
C    -2.302757  -0.992160  -0.048558
O    -3.175385  -0.167966  -0.423959
O    -1.598614  -1.779927  -0.743345
H    -0.955825  -2.006511  3.112425
H    -1.142912  -2.982668  1.632168
H    -1.948509  -0.009611  1.864428
H    -3.040890  -1.375965  1.950757
O    0.601466  0.750391  1.045233
H    0.801036  1.601552  1.481898
