18
Energy: -15001.4638291 eV PBE+vdW (tier 2 basis)
N    -1.030560  0.728265  0.540354
C    -0.389196  0.226329  1.772446
C    1.130041  -0.085612  1.643580
O    1.924137  0.432905  2.434258
H    -1.006409  -0.006687  -0.174199
H    -0.464659  1.493839  0.169284
H    -0.438022  1.042470  2.507695
C    -1.187677  -0.956768  2.368506
C    -0.933423  -2.378765  1.824443
C    -1.203390  -2.579136  0.318756
O    -2.181378  -3.240415  -0.049438
O    -0.347355  -2.009262  -0.487674
H    -2.254317  -0.706449  2.250099
H    -0.982517  -0.978613  3.450372
H    -1.585024  -3.076472  2.366717
H    0.110269  -2.663104  2.033142
O    1.496405  -0.883537  0.668128
H    0.610587  -1.405936  0.125274
