18
Energy: -15001.1388868 eV PBE+vdW (tier 2 basis)
N    0.317214  0.111846  -0.022746
C    -0.012877  0.007589  1.416965
C    1.282799  0.265641  2.215462
O    1.412198  0.095541  3.414034
H    -0.546082  0.405524  -0.512695
H    0.489404  -0.830809  -0.384954
H    -0.668834  0.865817  1.648932
C    -0.749425  -1.271861  1.838084
C    -2.209246  -1.318884  1.354725
C    -2.318205  -1.197502  -0.200122
O    -2.470755  -0.016064  -0.651900
O    -2.172408  -2.262889  -0.850863
H    -0.697036  -1.347142  2.934596
H    -0.202628  -2.141350  1.432311
H    -2.771067  -0.496199  1.825188
H    -2.652671  -2.274547  1.670562
O    2.261883  0.750908  1.428728
H    1.788003  0.734455  0.517986
