18
Energy: -15000.6917375 eV PBE+vdW (tier 2 basis)
N    0.176210  0.107403  -0.234616
C    0.036510  0.049686  1.220898
C    1.374481  0.035827  1.928500
O    1.636584  0.572827  2.990042
H    -0.793273  0.275991  -0.572689
H    0.470619  -0.804718  -0.590452
H    -0.459695  0.980203  1.527800
C    -0.808599  -1.134203  1.795915
C    -2.109691  -1.393799  1.017007
C    -2.979730  -0.106523  0.816386
O    -3.861166  0.114851  1.682189
O    -2.678576  0.594192  -0.202772
H    -1.044527  -0.903096  2.846379
H    -0.189595  -2.049591  1.797557
H    -2.694982  -2.141315  1.572641
H    -1.867579  -1.817236  0.029679
O    2.314463  -0.729252  1.281791
H    3.097825  -0.687236  1.862495
