18
Energy: -15000.7213434 eV PBE+vdW (tier 2 basis)
N    0.062436  -0.118595  0.038056
C    0.119714  -0.074586  1.494803
C    1.560870  -0.151975  1.976025
O    2.541845  0.029195  1.287252
H    -0.822348  0.350127  -0.213953
H    0.841909  0.423704  -0.336044
H    -0.252152  0.898856  1.889674
C    -0.797671  -1.158349  2.108860
C    -2.235423  -1.081063  1.568606
C    -2.793165  0.378985  1.661941
O    -3.315853  0.706193  2.758008
O    -2.605351  1.092946  0.627760
H    -0.858669  -1.020050  3.206033
H    -0.361521  -2.152322  1.914240
H    -2.869672  -1.757838  2.159467
H    -2.242059  -1.415635  0.521995
O    1.722610  -0.394122  3.317440
H    0.835502  -0.554472  3.692838
