18
Energy: -15001.2135246 eV PBE+vdW (tier 2 basis)
N    -0.191671  0.306348  0.134164
C    0.034187  0.074657  1.589878
C    1.575012  -0.036303  1.891696
O    1.922188  0.199134  3.072543
H    -1.733302  0.186333  -0.014721
H    0.576157  -0.233404  -0.303765
H    -0.381811  0.933430  2.133563
C    -0.664447  -1.224572  2.078733
C    -1.797315  -1.812892  1.207413
C    -3.010993  -0.920911  0.943231
O    -2.779546  0.133321  0.157015
O    -4.122933  -1.167846  1.392139
H    -1.040063  -1.049300  3.095949
H    0.096189  -2.014463  2.169849
H    -2.172496  -2.723567  1.690965
H    -1.379942  -2.108271  0.231193
O    2.272662  -0.395577  0.896158
H    0.070125  1.276884  -0.054002
