18
Energy: -15000.6799743 eV PBE+vdW (tier 2 basis)
N    0.199699  -0.354600  -0.145687
C    0.056446  -0.236946  1.294149
C    1.410336  -0.164501  1.988249
O    2.500993  -0.478594  1.558590
H    -0.725935  -0.686688  -0.500470
H    0.400516  0.554738  -0.562629
H    -0.485548  0.673032  1.630821
C    -0.744992  -1.449923  1.846819
C    -2.267053  -1.252074  1.875017
C    -3.062699  -1.195668  0.522900
O    -4.301680  -1.059061  0.661007
O    -2.402252  -1.302840  -0.557377
H    -0.401857  -1.670112  2.870181
H    -0.479185  -2.313467  1.218446
H    -2.514457  -0.334512  2.434345
H    -2.718246  -2.073072  2.455765
O    1.280609  0.335155  3.271993
H    2.185627  0.295384  3.634325
