18
Energy: -15000.4812736 eV PBE+vdW (tier 2 basis)
N    1.844956  -2.013677  1.624542
C    0.837787  -1.092475  1.055616
C    0.768910  0.211421  1.843430
O    1.143598  1.304742  1.456981
H    1.506520  -2.361858  2.523813
H    2.719790  -1.518618  1.810102
H    1.181565  -0.800173  0.052489
C    -0.525626  -1.779406  0.944068
C    -1.629882  -0.908072  0.351553
C    -2.939812  -1.707510  -0.015265
O    -3.988093  -1.012713  -0.064825
O    -2.785027  -2.939420  -0.242430
H    -0.829250  -2.132810  1.944000
H    -0.419324  -2.677863  0.319521
H    -1.275626  -0.437611  -0.583187
H    -1.910454  -0.084498  1.025780
O    0.287709  0.037367  3.116901
H    0.292260  0.931173  3.507912
