18
Energy: -15000.6051511 eV PBE+vdW (tier 2 basis)
N    1.115377  -1.149554  -0.658504
C    0.455999  -0.709148  0.584106
C    1.485486  -0.197371  1.538971
O    2.611446  0.185943  1.245624
H    0.432090  -1.011597  -1.406934
H    1.896123  -0.516525  -0.846884
H    -0.234211  0.146453  0.369367
C    -0.504416  -1.792063  1.128699
C    -1.816001  -1.235068  1.694671
C    -2.699146  -0.415915  0.690475
O    -3.914444  -0.327225  0.986554
O    -2.103321  0.096861  -0.312318
H    0.011263  -2.427323  1.868013
H    -0.734203  -2.439383  0.270021
H    -1.614192  -0.585203  2.562253
H    -2.436801  -2.058902  2.075646
O    1.041783  -0.114900  2.835149
H    1.782168  0.303920  3.313092
