18
Energy: -15000.5555819 eV PBE+vdW (tier 2 basis)
N    1.358448  -0.350865  0.332513
C    0.316267  -0.018981  1.320692
C    0.887171  -0.016519  2.719025
O    0.582568  0.750283  3.615414
H    0.901023  -0.385427  -0.582094
H    1.671521  -1.309039  0.508510
H    -0.006195  1.015888  1.133951
C    -0.936539  -0.944233  1.303449
C    -1.732084  -0.891091  0.003860
C    -2.748126  -2.094036  -0.167681
O    -2.393087  -3.187288  0.347422
O    -3.777531  -1.815939  -0.835028
H    -1.590383  -0.666982  2.146022
H    -0.628749  -1.988922  1.469573
H    -1.057311  -0.963543  -0.869377
H    -2.282320  0.056059  -0.096571
O    1.764799  -1.048330  2.936090
H    1.994530  -0.983038  3.882229
