18
Energy: -15000.6096307 eV PBE+vdW (tier 2 basis)
N    1.172793  0.235153  0.099337
C    0.336716  0.017621  1.289018
C    1.241047  -0.211491  2.473006
O    2.337785  -0.744611  2.443741
H    0.605015  0.018935  -0.722687
H    1.929018  -0.454046  0.119996
H    -0.251618  0.929191  1.482359
C    -0.662657  -1.173105  1.202934
C    -1.664018  -1.051396  0.059510
C    -2.885160  -2.057433  0.170677
O    -3.418349  -2.346547  -0.931383
O    -3.196477  -2.416898  1.336294
H    -1.239088  -1.255175  2.136503
H    -0.083975  -2.106911  1.103801
H    -1.200414  -1.204997  -0.926721
H    -2.104383  -0.037579  0.052989
O    0.673971  0.190065  3.651782
H    1.297796  -0.103774  4.342844
