18
Energy: -15000.6683506 eV PBE+vdW (tier 2 basis)
N    -0.210398  0.187450  0.113284
C    -0.103725  0.135197  1.577352
C    1.327527  0.215880  2.060177
O    1.801786  -0.311283  3.049931
H    0.327542  0.985386  -0.227858
H    -1.213142  0.426526  -0.038698
H    -0.590333  1.023931  2.043896
C    -0.820980  -1.100309  2.146519
C    -2.259822  -1.268465  1.623070
C    -3.108434  0.043012  1.703927
O    -3.856833  0.182083  2.701593
O    -2.928705  0.857611  0.738105
H    -0.832671  -1.012068  3.242157
H    -0.226613  -1.995670  1.900683
H    -2.751999  -2.053267  2.215184
H    -2.223643  -1.600754  0.574757
O    2.105090  1.036806  1.273354
H    2.974873  1.035336  1.716086
