18
Energy: -15001.2607122 eV PBE+vdW (tier 2 basis)
N    -0.201215  1.035172  0.861661
C    -0.116986  0.097864  1.995846
C    1.305094  -0.499785  2.048006
O    2.064137  -0.249406  2.979715
H    -0.134684  0.502733  -0.011533
H    -1.121741  1.477685  0.854672
H    -0.192821  0.703436  2.908161
C    -1.198911  -1.043126  2.074394
C    -2.075700  -1.283981  0.839926
C    -1.439075  -1.801692  -0.479312
O    -2.229183  -2.222198  -1.341181
O    -0.157720  -1.727552  -0.614680
H    -1.870497  -0.803690  2.915331
H    -0.702114  -1.985496  2.352072
H    -2.616762  -0.361572  0.567988
H    -2.865143  -2.004131  1.100692
O    1.631965  -1.305400  1.053401
H    0.807355  -1.472860  0.372841
