18
Energy: -15001.2849742 eV PBE+vdW (tier 2 basis)
N    0.124160  0.201074  0.010740
C    0.113219  -0.015087  1.471431
C    1.573253  -0.290706  1.911321
O    1.942041  -0.380069  3.070986
H    -0.686020  -0.348717  -0.415353
H    -0.010399  1.186035  -0.212817
H    -0.220447  0.879018  2.025827
C    -0.792843  -1.194200  1.868217
C    -2.296695  -0.951845  1.672570
C    -2.894445  -1.110313  0.233003
O    -4.141158  -1.170726  0.174681
O    -2.068814  -1.159382  -0.742120
H    -0.580865  -1.419064  2.924157
H    -0.485339  -2.076140  1.283052
H    -2.564904  0.060390  2.022673
H    -2.864836  -1.640046  2.315750
O    2.378354  -0.427229  0.851394
H    1.678154  -0.240250  0.093512
