18
Energy: -15001.4376376 eV PBE+vdW (tier 2 basis)
N    0.145410  0.314630  -0.053269
C    0.115020  0.062994  1.411853
C    1.556069  -0.426130  1.857287
O    2.418060  -0.439580  0.926929
H    -0.806356  -0.645859  -0.728543
H    1.157135  0.146751  -0.260719
H    -0.071477  1.001091  1.959769
C    -0.970274  -0.946673  1.811320
C    -0.923139  -2.288457  1.047432
C    -1.716105  -2.345991  -0.261311
O    -2.488265  -3.267733  -0.505923
O    -1.521230  -1.347826  -1.120633
H    -1.972953  -0.498558  1.705157
H    -0.812594  -1.146616  2.879747
H    -1.313504  -3.097926  1.674922
H    0.128137  -2.540703  0.825987
O    1.678686  -0.729122  3.064321
H    -0.070620  1.287709  -0.266327
