26
Energy: -105819.332865 eV PBE+vdW (tier 2 basis)
C    0.652809  -0.396094  -0.092140
C    0.124495  -0.242846  1.292370
O    0.866221  0.111080  2.248838
H    1.123440  0.547755  -0.399401
H    -0.114436  -0.673298  -0.822403
H    1.444634  -1.158036  -0.091179
N    -1.202325  -0.492419  1.511548
C    -1.684861  -0.341346  2.869358
C    -1.499180  -1.598610  3.745671
O    -0.561990  -1.550669  4.596556
H    -1.781950  -0.812716  0.741447
H    -0.896113  0.300515  3.244873
C    -2.885900  0.555576  3.193827
C    -2.466057  1.476843  4.363252
O    -3.372775  2.245851  4.923068
O    -1.305656  1.528690  4.786129
H    -3.802459  0.014740  3.466714
H    -3.134196  1.200260  2.335467
N    -2.259843  -2.675242  3.611415
C    -3.345950  -2.916647  2.664670
H    -2.016119  -3.446147  4.236113
H    -3.055742  -3.693760  1.946178
H    -3.597628  -2.003112  2.118130
H    -4.238254  -3.253295  3.205610
H    -4.261830  2.156448  4.526549
Sr    0.910662  0.328475  4.677339
