26
Energy: -105818.695664 eV PBE+vdW (tier 2 basis)
C    0.237606  0.856005  0.339105
C    0.094898  0.358057  1.738320
O    1.068002  -0.224536  2.316232
H    1.110303  1.518346  0.269748
H    -0.648147  1.386874  -0.024921
H    0.434288  -0.001886  -0.320332
N    -1.076879  0.531347  2.367252
C    -1.420427  -0.053211  3.663755
C    -2.628886  -1.046588  3.677391
O    -2.427763  -2.100527  4.268624
H    -1.812803  0.986968  1.833052
H    -0.608975  -0.744807  3.899770
C    -1.513416  0.966830  4.814718
C    -0.179037  1.329888  5.434719
O    -0.097285  2.364560  6.239837
O    0.856905  0.669545  5.251730
H    -2.109775  0.519619  5.630489
H    -2.043334  1.882977  4.515854
N    -3.808340  -0.711318  3.107504
C    -4.205279  0.513104  2.424731
H    -4.504622  -1.451868  3.174950
H    -5.294195  0.610525  2.484599
H    -3.939358  0.505917  1.355314
H    -3.791531  1.406689  2.911508
H    -0.947711  2.832537  6.360603
Sr    2.345958  -0.704226  4.111484
