26
Energy: -105819.246004 eV PBE+vdW (tier 2 basis)
C    -0.153315  -0.257396  -0.021561
C    -0.067845  -0.149530  1.465629
O    1.042335  -0.334048  2.057348
H    -1.151262  -0.046739  -0.418627
H    0.141258  -1.274935  -0.315755
H    0.571086  0.429156  -0.479423
N    -1.186836  0.142186  2.140229
C    -1.432417  0.115538  3.597824
C    -0.636875  1.176808  4.369803
O    0.604216  1.027075  4.611356
H    -2.040999  0.166624  1.587118
H    -2.495784  0.364856  3.679331
C    -1.276718  -1.284733  4.207402
C    -2.363200  -2.205159  3.646645
O    -2.224033  -3.447476  4.123092
O    -3.222419  -1.828987  2.877429
H    -1.384749  -1.241026  5.301512
H    -0.294586  -1.733385  4.005434
N    -1.273516  2.242817  4.828829
C    -2.687931  2.616011  4.678109
H    -0.690838  2.876149  5.377538
H    -2.982679  2.634911  3.623113
H    -2.810161  3.624445  5.082663
H    -3.339149  1.937757  5.243174
H    -2.947550  -4.005245  3.767850
Sr    2.488967  0.082328  3.737941
