26
Energy: -105819.475114 eV PBE+vdW (tier 2 basis)
C    -0.633659  0.753829  0.211230
C    -0.531561  -0.066533  1.454992
O    0.457317  0.054616  2.231791
H    -0.576353  1.818115  0.476046
H    -1.549023  0.574098  -0.361789
H    0.236024  0.537226  -0.425338
N    -1.519629  -0.950263  1.709118
C    -1.593408  -1.920624  2.814047
C    -1.863107  -1.203746  4.153846
O    -0.925412  -0.588894  4.743753
H    -2.267292  -0.996746  1.022306
H    -2.460976  -2.546169  2.585163
C    -0.332836  -2.846802  2.843879
C    0.080778  -3.275593  4.231881
O    1.306656  -2.669910  4.623246
O    -0.501794  -4.018477  4.962115
H    0.503204  -2.374677  2.321135
H    -0.574774  -3.766442  2.295751
N    -3.079134  -1.244499  4.675529
C    -4.279197  -1.931706  4.178364
H    -3.169482  -0.745448  5.561216
H    -5.087924  -1.744971  4.890012
H    -4.119912  -3.015553  4.123485
H    -4.590638  -1.537484  3.203731
H    1.579083  -3.138680  5.441723
Sr    1.309483  -0.075819  4.373240
