26
Energy: -105819.120619 eV PBE+vdW (tier 2 basis)
C    0.173926  -0.270318  0.180691
C    -0.556556  0.622861  1.129314
O    -0.586052  1.855727  1.004496
H    -0.152183  -0.053401  -0.844421
H    0.047776  -1.336916  0.394984
H    1.244119  -0.023355  0.229189
N    -1.205355  0.023483  2.204232
C    -1.948227  0.915186  3.067153
C    -2.254771  0.411584  4.475555
O    -3.086375  1.075312  5.177702
H    -1.507768  -0.941162  2.082235
H    -1.243892  1.746669  3.251812
C    -3.218137  1.531329  2.385854
C    -3.158262  3.027532  2.572915
O    -2.251385  3.688307  1.929085
O    -3.893842  3.606782  3.412383
H    -4.147024  1.123703  2.797338
H    -3.192058  1.294258  1.316161
N    -1.600723  -0.637436  4.936278
C    -1.706579  -1.192308  6.286873
H    -0.902921  -1.045234  4.315155
H    -1.745609  -2.284819  6.221213
H    -2.618007  -0.822597  6.761597
H    -0.832873  -0.899800  6.883238
H    -1.616528  3.046204  1.442384
Sr    -4.390343  2.949371  5.553036
