26
Energy: -105819.46752 eV PBE+vdW (tier 2 basis)
C    -0.266137  -0.293448  0.390745
C    -0.515516  -0.695899  1.805230
O    0.345082  -0.493462  2.707076
H    0.084103  0.746181  0.364302
H    -1.142400  -0.401319  -0.256517
H    0.545790  -0.918963  -0.008853
N    -1.685925  -1.298146  2.098862
C    -2.069202  -1.853911  3.402879
C    -1.996377  -0.790390  4.521632
O    -0.994473  -0.725559  5.293097
H    -2.311925  -1.487758  1.320732
H    -3.127957  -2.117299  3.292784
C    -1.342671  -3.176936  3.804695
C    0.035193  -3.399708  3.228647
O    1.085867  -3.138059  4.158137
O    0.290731  -3.784863  2.127280
H    -1.936435  -4.009932  3.407111
H    -1.330522  -3.264851  4.896648
N    -3.024719  0.032347  4.674550
C    -4.274221  0.089000  3.906019
H    -2.928311  0.689606  5.448813
H    -4.866210  0.924724  4.288667
H    -4.862410  -0.828896  4.034866
H    -4.078356  0.269426  2.842699
H    1.871666  -3.580361  3.769100
Sr    1.268334  -0.670522  4.824797
