26
Energy: -105819.570359 eV PBE+vdW (tier 2 basis)
C    -0.057822  0.182426  -0.036237
C    -0.323296  -0.088528  1.408092
O    0.566129  -0.600714  2.145772
H    -0.894247  0.660850  -0.555887
H    0.175802  -0.769359  -0.534561
H    0.834546  0.815899  -0.126815
N    -1.545305  0.213497  1.892411
C    -2.063674  -0.044163  3.246535
C    -1.413385  0.896882  4.283838
O    -0.223808  0.710863  4.670806
H    -2.204578  0.614567  1.230833
H    -3.129519  0.205504  3.194144
C    -1.949123  -1.561047  3.617791
C    -1.679814  -1.817225  5.081927
O    -0.353565  -2.290042  5.296286
O    -2.431142  -1.660253  5.995435
H    -1.193444  -2.050525  2.997816
H    -2.910697  -2.039537  3.392405
N    -2.152041  1.890873  4.748678
C    -1.686169  2.862873  5.742651
H    -3.116490  1.965220  4.436731
H    -2.417244  3.673061  5.802690
H    -0.714474  3.269166  5.442743
H    -1.593389  2.385140  6.726163
H    -0.336770  -2.597463  6.228513
Sr    1.496517  -0.799968  4.244241
