26
Energy: -105819.128906 eV PBE+vdW (tier 2 basis)
C    0.943060  -1.255051  0.145889
C    -0.015683  -0.131632  0.358606
O    0.009091  0.883828  -0.389679
H    0.917142  -2.014939  0.930870
H    1.949439  -0.809911  0.135522
H    0.795561  -1.718781  -0.837928
N    -0.888588  -0.132295  1.410100
C    -1.870646  -1.172774  1.808292
C    -1.613833  -2.551529  1.208006
O    -1.814304  -2.774881  -0.046414
H    -1.283002  0.800026  1.554885
H    -1.865169  -1.261791  2.902962
C    -3.286118  -0.664505  1.355509
C    -3.144059  0.036127  0.009378
O    -2.660691  -0.633060  -0.995766
O    -3.330909  1.274975  -0.084165
H    -3.667553  0.054701  2.088966
H    -4.001331  -1.497410  1.298374
N    -1.256625  -3.536998  1.997852
C    -1.068317  -4.934434  1.590202
H    -1.100407  -3.315783  2.979913
H    -1.625534  -5.578877  2.279418
H    -0.002368  -5.189672  1.642742
H    -1.433990  -5.070730  0.570310
H    -2.200447  -1.906414  -0.543227
Sr    -1.738541  1.575315  -1.855291
