26
Energy: -105819.042633 eV PBE+vdW (tier 2 basis)
C    -0.045048  0.121559  0.087550
C    0.047356  0.054531  1.575105
O    1.166923  -0.141490  2.147845
H    0.363554  -0.799585  -0.348651
H    0.586825  0.948954  -0.265817
H    -1.066806  0.272536  -0.274458
N    -1.070436  0.214196  2.293302
C    -1.108217  0.332146  3.754755
C    -0.907200  -1.047724  4.438994
O    0.295187  -1.352423  4.745628
H    -1.953999  0.408381  1.809824
H    -0.188556  0.859517  4.046960
C    -2.262563  1.232738  4.256213
C    -3.673855  1.133639  3.686527
O    -3.671333  1.037504  2.314163
O    -4.675619  1.193755  4.343259
H    -1.952881  2.273848  4.071123
H    -2.352399  1.130279  5.343960
N    -1.875721  -1.904473  4.709291
C    -3.313286  -1.852403  4.424251
H    -1.548832  -2.739554  5.197375
H    -3.847101  -1.254700  5.172402
H    -3.694691  -2.877077  4.459867
H    -3.497084  -1.460145  3.419703
H    -4.602779  1.076593  2.010718
Sr    2.379560  -1.061602  3.832111
