26
Energy: -105819.106094 eV PBE+vdW (tier 2 basis)
C    1.037344  0.091973  0.322062
C    0.333906  -0.522348  1.487391
O    0.839887  -1.540835  2.075604
H    2.065818  0.352377  0.604288
H    0.530265  0.982166  -0.062550
H    1.104621  -0.655896  -0.481171
N    -0.815004  0.011162  1.882337
C    -1.798142  -0.502410  2.830323
C    -3.163513  -0.060444  2.184701
O    -3.137034  0.904420  1.422114
H    -1.259308  0.759043  1.316430
H    -1.717262  -1.595356  2.905413
C    -1.703545  0.160129  4.222684
C    -0.552727  -0.255490  5.106469
O    -0.218947  0.506268  6.126507
O    0.088163  -1.308683  4.953800
H    -2.620495  -0.073428  4.793460
H    -1.703783  1.254871  4.104406
N    -4.257891  -0.738456  2.560833
C    -5.603643  -0.407680  2.082776
H    -4.151665  -1.574931  3.125588
H    -5.573459  0.583002  1.621759
H    -6.302434  -0.400156  2.926293
H    -5.938602  -1.140791  1.338617
H    -0.762553  1.316392  6.199755
Sr    1.536989  -2.726065  3.824720
