26
Energy: -105818.548366 eV PBE+vdW (tier 2 basis)
C    -0.339557  0.686562  0.092586
C    -0.345506  -0.222203  1.277234
O    0.543190  -1.126674  1.408563
H    0.632514  1.190700  0.013614
H    -1.130573  1.442862  0.122233
H    -0.465101  0.079524  -0.815811
N    -1.311433  -0.076364  2.192842
C    -1.615250  -1.022295  3.272296
C    -3.122806  -1.053458  3.678120
O    -3.595601  -2.153932  3.913129
H    -2.027993  0.616430  1.983263
H    -1.456030  -2.031529  2.871947
C    -0.756459  -0.839405  4.572078
C    0.608006  -1.393848  4.349012
O    0.746639  -2.747096  4.214005
O    1.630181  -0.747140  4.119932
H    -1.264589  -1.391516  5.377818
H    -0.674194  0.214578  4.859126
N    -3.784136  0.125460  3.738089
C    -5.200609  0.182825  4.121431
H    -3.265264  0.997807  3.774668
H    -5.634554  1.109544  3.734757
H    -5.317446  0.147609  5.212368
H    -5.718836  -0.675736  3.684502
H    -0.062714  -3.254242  4.431270
Sr    2.478727  -2.000382  2.222372
