26
Energy: -105818.928124 eV PBE+vdW (tier 2 basis)
C    -0.296162  -0.629981  -0.432702
C    -0.516762  0.076933  0.865596
O    0.343629  0.112381  1.762033
H    0.605164  -0.227127  -0.912784
H    -1.143983  -0.558385  -1.122399
H    -0.093027  -1.689030  -0.221926
N    -1.736730  0.691670  1.061464
C    -1.903377  1.409329  2.306355
C    -3.313702  1.735228  2.805865
O    -3.401806  2.649040  3.696968
H    -2.320696  0.888614  0.254769
H    -1.534625  0.704603  3.076362
C    -0.985187  2.680710  2.369960
C    -0.195490  2.642810  3.656331
O    0.715158  1.735150  3.781261
O    -0.476741  3.406324  4.615870
H    -1.562133  3.606764  2.289598
H    -0.292231  2.644969  1.522081
N    -4.404798  1.081031  2.442807
C    -4.600403  -0.087574  1.571172
H    -5.247478  1.429320  2.901457
H    -5.487556  -0.618739  1.929699
H    -3.743980  -0.762830  1.622080
H    -4.782033  0.222813  0.534256
H    0.694364  1.096660  2.971563
Sr    -2.556960  4.017161  5.357606
