26
Energy: -105818.996222 eV PBE+vdW (tier 2 basis)
C    0.725933  -0.650173  0.216238
C    0.424264  -0.537331  1.672833
O    1.332162  -0.707258  2.550204
H    1.130028  -1.651582  0.011660
H    1.506760  0.073459  -0.054907
H    -0.149192  -0.483365  -0.420414
N    -0.828828  -0.251048  2.056182
C    -1.182011  -0.123770  3.468341
C    -2.671743  -0.190025  3.899871
O    -2.937114  0.357305  4.989267
H    -1.513455  -0.040625  1.335327
H    -0.723015  -0.997236  3.962893
C    -0.566184  1.180730  4.069059
C    0.001058  0.845512  5.429223
O    -0.817627  0.656947  6.404835
O    1.237978  0.649344  5.567390
H    -1.333082  1.960555  4.143481
H    0.239449  1.546658  3.427016
N    -3.612700  -0.835510  3.204030
C    -3.526846  -1.666521  2.002368
H    -4.526536  -0.782464  3.655285
H    -4.364592  -2.370518  2.020878
H    -2.604473  -2.256500  1.987180
H    -3.618426  -1.071418  1.082201
H    -1.777538  0.662945  6.005194
Sr    2.813774  -0.422056  4.294071
