26
Energy: -105819.58882 eV PBE+vdW (tier 2 basis)
C    0.135731  -0.364291  0.173290
C    0.058272  -0.135357  1.645460
O    1.088286  0.206844  2.308319
H    0.921874  -1.098394  -0.045938
H    0.434535  0.577099  -0.310350
H    -0.809525  -0.702371  -0.263362
N    -1.124109  -0.281721  2.259126
C    -1.358043  0.007639  3.680978
C    -0.775133  -1.126326  4.564821
O    0.409749  -0.967132  5.018692
H    -1.904720  -0.644303  1.715091
H    -0.733612  0.878718  3.923146
C    -2.808309  0.454178  3.939084
C    -3.900307  -0.494309  3.473136
O    -5.070835  0.121783  3.377736
O    -3.714576  -1.680002  3.219813
H    -2.970668  1.434393  3.469917
H    -2.949327  0.619019  5.018830
N    -1.493667  -2.202846  4.784040
C    -1.075375  -3.351149  5.584947
H    -2.400782  -2.240803  4.280906
H    -0.743367  -4.168386  4.930901
H    -1.931122  -3.699761  6.172611
H    -0.262741  -3.061204  6.255612
H    -5.762911  -0.523745  3.119158
Sr    2.337682  -0.057575  4.200039
