26
Energy: -105819.337573 eV PBE+vdW (tier 2 basis)
C    -0.005058  0.422236  0.049080
C    0.002806  0.013166  1.485398
O    1.090561  -0.336838  2.044769
H    0.331843  -0.430511  -0.557917
H    0.721574  1.230577  -0.105672
H    -0.987878  0.745952  -0.307616
N    -1.158574  0.025744  2.149380
C    -1.479082  -0.514316  3.488407
C    -0.789288  0.232990  4.641137
O    0.451904  0.101080  4.877415
H    -1.983779  0.226617  1.588228
H    -2.559383  -0.341112  3.577041
C    -1.283030  -2.034448  3.580191
C    -2.285822  -2.733842  2.659339
O    -2.107376  -4.059435  2.684829
O    -3.119349  -2.138934  2.009418
H    -1.452503  -2.381014  4.610563
H    -0.268221  -2.350450  3.302677
N    -1.567548  0.979946  5.407896
C    -1.134753  1.726607  6.589734
H    -2.551192  1.048351  5.156700
H    -1.027299  2.791291  6.345275
H    -0.179260  1.330078  6.940672
H    -1.890130  1.615620  7.374850
H    -2.779755  -4.479949  2.108753
Sr    2.427592  -0.423403  3.855456
