26
Energy: -105819.080596 eV PBE+vdW (tier 2 basis)
C    0.961758  -0.615160  0.805099
C    -0.082717  0.450499  0.667753
O    -0.009124  1.364090  -0.168314
H    0.720792  -1.384335  1.546497
H    1.911284  -0.136687  1.082157
H    1.119993  -1.085075  -0.173651
N    -1.160142  0.383215  1.519897
C    -2.175062  1.425351  1.657018
C    -3.127791  1.574910  0.444056
O    -4.385887  1.695140  0.671455
H    -1.219409  -0.401654  2.160232
H    -2.823421  1.093571  2.477723
C    -1.523774  2.774992  2.073774
C    -2.452568  3.829497  2.618648
O    -1.948005  4.970964  3.032717
O    -3.686205  3.692918  2.713370
H    -0.955477  3.199827  1.230029
H    -0.772878  2.560055  2.852421
N    -2.611942  1.593559  -0.760413
C    -3.367906  1.685046  -2.005820
H    -1.563090  1.552465  -0.781720
H    -2.895530  1.034336  -2.749033
H    -3.351617  2.715003  -2.386792
H    -4.401334  1.366724  -1.844676
H    -0.975440  5.024029  2.940292
Sr    -5.746756  2.904970  1.985452
