26
Energy: -105819.500481 eV PBE+vdW (tier 2 basis)
C    0.842210  -0.658254  0.093526
C    0.220084  -0.351819  1.411874
O    0.903541  0.077825  2.382328
H    0.121409  -0.990509  -0.660655
H    1.607887  -1.434491  0.230222
H    1.362755  0.237965  -0.270668
N    -1.124810  -0.541108  1.555476
C    -1.702883  -0.231249  2.848240
C    -1.626880  -1.393239  3.861004
O    -0.759685  -1.278070  4.778969
H    -1.662922  -0.907776  0.775884
H    -0.928056  0.434134  3.213045
C    -2.903915  0.709305  2.975380
C    -2.579649  1.721007  4.084289
O    -3.616485  2.461430  4.399346
O    -1.463139  1.836932  4.613503
H    -3.863767  0.230356  3.205729
H    -3.057548  1.284322  2.048405
N    -2.409338  -2.458134  3.777142
C    -3.428805  -2.770701  2.777818
H    -2.242401  -3.163460  4.497292
H    -4.368511  -3.028225  3.280432
H    -3.109425  -3.624800  2.167305
H    -3.611861  -1.912939  2.124551
H    -3.385585  3.121010  5.088531
Sr    0.760781  0.549491  4.759033
