26
Energy: -105818.418486 eV PBE+vdW (tier 2 basis)
C    -0.197890  0.481807  -0.170746
C    -0.164718  0.506096  1.328628
O    0.481873  1.296306  2.000618
H    -0.740013  1.370656  -0.522917
H    -0.676050  -0.411541  -0.588327
H    0.826941  0.565203  -0.551138
N    -0.933646  -0.468702  1.985448
C    -1.044205  -0.382963  3.412971
C    -0.706524  -1.679785  4.150995
O    -1.398035  -2.062139  5.166474
H    -1.539240  -1.085814  1.452686
H    -0.248163  0.350884  3.678093
C    -2.417401  0.266453  3.799929
C    -2.710462  0.216010  5.257778
O    -3.868340  -0.370737  5.690001
O    -1.943746  0.559608  6.160372
H    -3.229760  -0.189149  3.218797
H    -2.346619  1.323597  3.499389
N    0.345841  -2.397453  3.788665
C    1.393892  -2.111491  2.797625
H    0.461910  -3.257320  4.323436
H    2.284462  -2.673103  3.095762
H    1.641522  -1.045729  2.785186
H    1.088540  -2.436996  1.796815
H    -4.467319  -0.625291  4.960434
Sr    -2.045668  -1.554939  7.312059
