26
Energy: -105819.383866 eV PBE+vdW (tier 2 basis)
C    -0.724295  -0.167064  0.169852
C    -0.423529  0.155360  1.594495
O    0.220062  1.205312  1.902145
H    0.190754  -0.097309  -0.431017
H    -1.418631  0.596715  -0.211813
H    -1.178590  -1.153821  0.033283
N    -0.858348  -0.679791  2.549512
C    -0.858457  -0.384907  3.991039
C    0.517338  -0.692275  4.611850
O    1.440084  0.173155  4.478556
H    -1.374249  -1.501775  2.243687
H    -0.992047  0.704964  4.077808
C    -2.081312  -1.015667  4.655149
C    -3.333488  -0.211659  4.280397
O    -4.440031  -0.875493  4.625753
O    -3.286126  0.882280  3.758903
H    -1.989476  -0.972996  5.751161
H    -2.229173  -2.074503  4.392108
N    0.703872  -1.830385  5.255944
C    1.950300  -2.259255  5.893957
H    -0.087853  -2.465893  5.325329
H    1.745479  -2.540901  6.933117
H    2.669007  -1.437763  5.869459
H    2.360027  -3.126636  5.361661
H    -5.222451  -0.323205  4.417336
Sr    1.807134  2.093509  3.253325
