26
Energy: -105819.429453 eV PBE+vdW (tier 2 basis)
C    0.106602  -1.342137  -0.068549
C    -0.148730  -0.549023  1.169045
O    0.091700  0.696595  1.205991
H    -0.099951  -2.410938  0.048113
H    1.148983  -1.205751  -0.384740
H    -0.525382  -0.942305  -0.874819
N    -0.654842  -1.176273  2.244173
C    -1.085465  -0.491305  3.468592
C    0.126760  -0.177707  4.378258
O    0.815242  0.859199  4.124414
H    -0.826476  -2.175891  2.165799
H    -1.460267  0.496069  3.167284
C    -2.253365  -1.213181  4.140205
C    -2.813042  -0.321669  5.246442
O    -3.805300  -0.924891  5.902215
O    -2.383105  0.794977  5.466672
H    -2.000568  -2.207655  4.541132
H    -3.050834  -1.393109  3.403377
N    0.439177  -1.007419  5.356102
C    1.549663  -0.837888  6.294984
H    -0.173295  -1.803340  5.514955
H    2.205566  -0.041588  5.938115
H    2.109588  -1.776969  6.365977
H    1.158875  -0.574669  7.285992
H    -4.158137  -0.316039  6.584469
Sr    0.933602  2.417909  2.452806
