26
Energy: -105818.860344 eV PBE+vdW (tier 2 basis)
C    0.891285  0.047025  0.291707
C    0.227141  -0.326068  1.577299
O    0.478175  -1.457173  2.129323
H    0.604470  -0.686316  -0.475630
H    1.982565  -0.008289  0.400689
H    0.617523  1.047922  -0.055715
N    -0.621042  0.539221  2.114947
C    -1.540150  0.380372  3.230560
C    -2.572254  1.552837  2.993594
O    -2.228869  2.457088  2.235210
H    -0.820489  1.451394  1.654850
H    -2.038741  -0.598981  3.166490
C    -0.874198  0.571477  4.637059
C    0.106857  -0.522739  4.901893
O    -0.351237  -1.770519  5.218579
O    1.322716  -0.450228  4.735567
H    -1.660267  0.583329  5.405965
H    -0.345237  1.531517  4.669200
N    -3.728663  1.486192  3.665587
C    -4.769056  2.514746  3.555491
H    -3.961476  0.639349  4.173684
H    -5.216319  2.683555  4.540458
H    -5.547812  2.203113  2.848150
H    -4.309021  3.439322  3.196965
H    -1.312202  -1.812811  5.387607
Sr    1.777818  -2.561611  3.600453
