26
Energy: -105819.282373 eV PBE+vdW (tier 2 basis)
C    0.866749  0.543696  0.140176
C    0.441555  0.054446  1.486700
O    1.263723  -0.558938  2.232878
H    1.159591  -0.323933  -0.468649
H    1.759249  1.174237  0.245210
H    0.089873  1.103066  -0.390908
N    -0.826483  0.280008  1.866001
C    -1.545398  -0.206562  3.063606
C    -0.997937  0.424877  4.359363
O    0.095113  0.002917  4.863665
H    -1.400413  0.779830  1.192172
H    -2.571529  0.152877  2.935653
C    -1.615727  -1.739179  3.132680
C    -2.491243  -2.167600  4.300998
O    -2.590507  -3.499376  4.375217
O    -3.017528  -1.374276  5.056450
H    -0.629325  -2.214683  3.218052
H    -2.046645  -2.127325  2.198583
N    -1.647423  1.424220  4.926371
C    -2.969131  1.964719  4.587250
H    -1.222999  1.763818  5.789551
H    -3.739922  1.197173  4.731426
H    -2.991097  2.349857  3.561343
H    -3.172001  2.800037  5.262632
H    -3.192404  -3.731462  5.113246
Sr    2.089860  -0.928446  4.317338
