19
Energy: -102187.0424964  eV PBE+vdW (tier 2 basis)
 N   -0.39376    0.87264    0.60348
 C   -0.19436    0.22582    1.81911
 C    1.40378    0.20755    2.17449
 O    1.74899    0.35890    3.31100
 H   -0.62485    1.86378    0.56471
 H   -0.07916    0.45113   -0.27059
 H   -0.64452    0.79230    2.64137
 C   -0.59679   -1.27607    1.84170
 C   -2.12001   -1.48420    1.86702
 C   -2.79399   -1.38342    3.21858
 O   -4.03474   -1.69718    3.29074
 O   -2.15029   -1.02358    4.26833
 H   -0.13736   -1.73747    2.72480
 H   -0.17599   -1.77093    0.95540
 H   -2.33972   -2.49527    1.48740
 H   -2.65007   -0.81127    1.17585
 O    2.12389   -0.00877    1.08852
 H    3.08080   -0.05262    1.31303
Sr   -4.06000   -1.48137    5.60017
