19
Energy: -102187.0672912  eV PBE+vdW (tier 2 basis)
 N    0.29412   -1.77173    2.44906
 C   -0.12867   -0.74752    1.54919
 C    0.74030    0.52326    1.65842
 O    1.20756    0.99214    2.70350
 H    1.28581   -1.96691    2.57751
 H   -0.31186   -2.57979    2.58579
 H    0.00873   -1.09082    0.50013
 C   -1.65008   -0.40677    1.69195
 C   -2.23911   -0.48927    3.12571
 C   -1.30094    0.02408    4.17328
 O   -1.38473    1.18117    4.68043
 O   -0.29161   -0.70332    4.54224
 H   -2.21459   -1.09574    1.05101
 H   -1.80759    0.59328    1.26755
 H   -2.50011   -1.52561    3.37990
 H   -3.16353    0.10252    3.14736
 O    0.88708    1.07583    0.47769
 H    1.39168    1.91763    0.52434
Sr    0.97153    1.32260    5.12295
