19
Energy: -102186.4674262  eV PBE+vdW (tier 2 basis)
 N   -0.63169   -0.30229    0.04736
 C    0.01261   -0.09429    1.32439
 C    1.57678   -0.17452    1.20335
 O    2.09340   -0.88699    0.28445
 H   -2.09207   -0.92115    0.38405
 H   -0.21074   -1.05016   -0.51307
 H   -0.22223    0.91345    1.69089
 C   -0.40489   -1.14696    2.39062
 C   -1.85342   -0.95748    2.89319
 C   -2.93900   -1.54609    2.00338
 O   -2.93280   -1.42738    0.70131
 O   -3.86161   -2.13786    2.55640
 H    0.25324   -1.04352    3.26316
 H   -0.24789   -2.15774    1.98647
 H   -2.12466    0.10353    3.03310
 H   -1.94924   -1.41656    3.88883
 O    2.26777    0.47459    2.04618
 H   -0.75813    0.53938   -0.51871
Sr    4.28318   -0.25133    1.00590
