19
Energy: -102188.5775438  eV PBE+vdW (tier 2 basis)
 N    0.78424   -0.59220    0.23003
 C    0.61895   -0.25221    1.52131
 C    1.34894    0.86643    2.02756
 O    1.26449    1.31628    3.22440
 H    0.38057   -1.44131   -0.15282
 H    1.41798   -0.06981   -0.36980
 H   -3.99073    0.37245    2.14145
 C   -0.28829   -1.08960    2.37551
 C   -1.80020   -0.78996    2.25720
 C   -2.31022    0.36803    3.08079
 O   -1.65794    0.89478    3.99840
 O   -3.52032    0.83408    2.86455
 H    0.02284   -1.01903    3.42474
 H   -0.14171   -2.14329    2.09517
 H   -2.36904   -1.67236    2.60185
 H   -2.09707   -0.64216    1.20734
 O    2.16748    1.44122    1.13646
 H    2.67866    2.16356    1.54835
Sr    0.13238    1.87211    5.08250
