19
Energy: -102187.0779127  eV PBE+vdW (tier 2 basis)
 N   -0.26852    0.09562    0.15063
 C   -0.39198   -0.00012    1.53130
 C    1.04489    0.38947    2.24779
 O    1.37721   -0.15901    3.25905
 H   -0.22895    1.00028   -0.31694
 H   -0.06661   -0.71927   -0.42539
 H   -0.97937    0.86358    1.90402
 C   -0.94202   -1.31492    2.08718
 C   -0.19944   -2.59461    1.69416
 C   -0.70495   -3.83445    2.41443
 O   -0.28147   -4.98060    2.03068
 O   -1.52216   -3.73426    3.39649
 H   -1.99219   -1.36983    1.76519
 H   -0.94914   -1.21556    3.18089
 H    0.87495   -2.53094    1.93406
 H   -0.25724   -2.82203    0.61903
 O    1.63775    1.35582    1.57331
 H    2.45718    1.64768    2.03360
Sr   -1.50733   -6.07196    3.68216
