19
Energy: -102186.8494124  eV PBE+vdW (tier 2 basis)
 N    0.25954   -0.01378   -0.17098
 C    0.06541   -0.03294    1.24651
 C    1.40554   -0.27098    1.97987
 O    2.37464   -0.81326    1.43967
 H   -0.56450   -0.06743   -0.76815
 H    1.04566    0.49533   -0.57218
 H   -0.31714    0.95972    1.57458
 C   -1.02209   -1.07854    1.62359
 C   -0.59148   -2.56583    1.59687
 C    0.52906   -2.95084    0.67803
 O    0.79941   -2.32413   -0.41953
 O    1.33481   -3.87936    0.99723
 H   -1.86717   -0.90183    0.94362
 H   -1.40421   -0.85200    2.62667
 H   -1.46227   -3.18431    1.32104
 H   -0.29520   -2.90596    2.59809
 O    1.49681    0.07264    3.24291
 H    0.71452    0.54564    3.59301
Sr    3.22264   -2.70017    0.14215
