19
Energy: -102187.1348266  eV PBE+vdW (tier 2 basis)
 N   -0.01604    0.59391    0.51873
 C   -0.11807   -0.18108    1.66957
 C    1.35688   -0.34303    2.38541
 O    1.55202   -1.22504    3.17100
 H    0.02490    1.61078    0.56293
 H    0.24038    0.17314   -0.37339
 H   -0.63726    0.39778    2.45621
 C   -0.72103   -1.57815    1.47464
 C   -2.22831   -1.52005    1.19567
 C   -2.90798   -2.87606    1.22211
 O   -4.13265   -2.94764    0.85343
 O   -2.28788   -3.92416    1.62097
 H   -0.51711   -2.14815    2.39085
 H   -0.19312   -2.10484    0.66531
 H   -2.46652   -1.05276    0.22962
 H   -2.75128   -0.90869    1.95009
 O    2.16645    0.62662    1.99570
 H    3.02471    0.56445    2.47377
Sr   -4.22655   -5.23126    1.32619
