19
Energy: -102187.0783440  eV PBE+vdW (tier 2 basis)
 N   -0.04099   -0.46580   -0.04978
 C   -0.01094   -0.07278    1.28252
 C    1.52213    0.38677    1.69373
 O    1.93014    0.18546    2.80147
 H    0.00798    0.21652   -0.80533
 H    0.03606   -1.44444   -0.31998
 H   -0.49114    0.92230    1.37839
 C   -0.58204   -1.05511    2.30682
 C    0.02470   -2.46047    2.32812
 C   -0.48603   -3.32474    3.46987
 O   -0.15761   -4.56244    3.49424
 O   -1.21532   -2.82312    4.39664
 H   -1.66305   -1.10964    2.11203
 H   -0.46008   -0.58713    3.29284
 H    1.12038   -2.42980    2.44644
 H   -0.16405   -3.03251    1.40691
 O    2.09800    0.99713    0.67578
 H    2.98299    1.34189    0.93370
Sr   -1.30535   -4.90723    5.49015
