19
Energy: -102188.5776039  eV PBE+vdW (tier 2 basis)
 N    0.47314   -0.45428    0.09490
 C    0.43909   -0.35300    1.43617
 C    1.43802    0.43687    2.08330
 O    1.50397    0.64416    3.34621
 H   -0.13995   -1.08913   -0.40661
 H    1.19515    0.01546   -0.44602
 H   -3.84382    1.21028    2.52975
 C   -0.61826   -1.10885    2.18778
 C   -2.01212   -0.44365    2.25122
 C   -2.19205    0.61049    3.31694
 O   -1.40252    0.76707    4.26400
 O   -3.25153    1.38844    3.28783
 H   -0.26488   -1.32863    3.20250
 H   -0.74550   -2.08778    1.70215
 H   -2.77037   -1.21740    2.46794
 H   -2.29644   -0.02046    1.27558
 O    2.34516    0.96933    1.25365
 H    3.02981    1.45507    1.75171
Sr    0.60798    1.05415    5.36414
