19
Energy: -102187.1310499  eV PBE+vdW (tier 2 basis)
 N   -0.27971    0.46389    0.36809
 C    0.03618   -0.08727    1.60790
 C    1.65571   -0.14524    1.80238
 O    2.14822   -0.84102    2.64763
 H   -0.37812   -0.12162   -0.45994
 H   -0.24538    1.46914    0.20862
 H   -0.22478    0.63794    2.40236
 C   -0.57708   -1.48263    1.85564
 C   -0.60501   -1.85878    3.33952
 C   -1.16429   -3.24723    3.61707
 O   -1.48656   -3.52596    4.82469
 O   -1.28518   -4.11436    2.68337
 H   -0.03994   -2.24580    1.27557
 H   -1.60240   -1.44609    1.46366
 H   -1.19068   -1.14572    3.93680
 H    0.40491   -1.86862    3.78234
 O    2.25895    0.67705    0.96087
 H    3.22966    0.67879    1.12390
Sr   -2.08334   -5.69760    4.23852
