19
Energy: -102188.5778903  eV PBE+vdW (tier 2 basis)
 N   -0.08081   -0.13479    0.09846
 C    0.42189    0.12536    1.31906
 C    1.83353    0.30138    1.44893
 O    2.44637    0.52329    2.55221
 H   -1.08137   -0.16016   -0.07044
 H    0.52778   -0.20047   -0.71380
 H   -1.05760   -3.32943    4.13184
 C   -0.52798    0.26011    2.47384
 C   -1.00503   -1.06198    3.11752
 C   -0.07122   -1.67556    4.13277
 O   -0.28396   -2.90318    4.55226
 O    0.88586   -1.06474    4.63839
 H   -1.42294    0.79089    2.11659
 H   -0.08801    0.90919    3.24060
 H   -1.24737   -1.81400    2.35101
 H   -1.95100   -0.87759    3.65780
 O    2.50893    0.22189    0.29463
 H    3.45845    0.39988    0.43413
Sr    2.80344    0.21793    4.74816
