19
Energy: -102186.9229789  eV PBE+vdW (tier 2 basis)
 N    0.03166   -0.13972   -0.09009
 C    0.02274   -0.00103    1.42416
 C    1.32947   -0.60582    1.94867
 O    1.85728   -1.58228    1.33884
 H    0.45346   -1.05417   -0.33622
 H    0.60217    0.59207   -0.53958
 H   -0.00922    1.06910    1.66536
 C   -1.21606   -0.74083    1.99047
 C   -1.25162   -0.89327    3.52852
 C   -0.23250   -1.86488    4.02775
 O    0.40550   -1.76578    5.12038
 O    0.15870   -2.87812    3.34117
 H   -1.28660   -1.73723    1.52789
 H   -2.11388   -0.17806    1.69593
 H   -2.24289   -1.28310    3.81488
 H   -1.12596    0.06000    4.05919
 O    1.78085   -0.18694    3.05662
 H   -0.91568   -0.08747   -0.49344
Sr    2.59759   -2.39945    3.74049
