19
Energy: -102187.1346671  eV PBE+vdW (tier 2 basis)
 N   -0.11883    0.38301    0.54232
 C    0.05415   -0.02114    1.86221
 C    1.64714   -0.30159    2.17409
 O    1.96885   -0.95089    3.12703
 H   -0.21254   -0.30212   -0.20626
 H    0.05969    1.34269    0.25147
 H   -0.11248    0.84145    2.53416
 C   -0.74844   -1.25829    2.28552
 C   -2.24774   -0.95764    2.40666
 C   -3.04744   -2.08045    3.04019
 O   -4.32517   -1.98814    3.04246
 O   -2.46855   -3.08824    3.57983
 H   -0.34032   -1.59377    3.24815
 H   -0.57036   -2.08134    1.57686
 H   -2.71677   -0.72660    1.43966
 H   -2.42781   -0.07001    3.03599
 O    2.40674    0.31480    1.28503
 H    3.35741    0.19764    1.51198
Sr   -4.54868   -3.98477    4.23053
