19
Energy: -102187.0130823  eV PBE+vdW (tier 2 basis)
 N    0.91486   -1.41271    1.10689
 C    0.20093   -0.19636    1.33794
 C    1.10017    0.87002    1.99219
 O    2.09441    0.62846    2.69051
 H    0.37396   -2.24578    0.87915
 H    1.84918   -1.38990    0.70010
 H   -0.11649    0.24072    0.36507
 C   -1.10431   -0.46803    2.13228
 C   -0.95229   -0.75324    3.64899
 C    0.36351   -1.28765    4.12412
 O    0.83295   -0.94961    5.25470
 O    1.13028   -2.03519    3.39517
 H   -1.60409   -1.30507    1.62525
 H   -1.76812    0.39535    2.00933
 H   -1.72458   -1.47936    3.95440
 H   -1.14861    0.15178    4.23830
 O    0.65557    2.07573    1.73259
 H    1.20078    2.77045    2.16295
Sr    3.05887   -0.86858    4.41806
