19
Energy: -102186.1789701  eV PBE+vdW (tier 2 basis)
 N    0.91837   -0.81687    0.40005
 C    0.10131   -0.41270    1.55188
 C    0.91883   -0.44774    2.87169
 O    0.47097   -0.14966    3.94120
 H    1.48632   -0.03412    0.06171
 H    0.31853   -1.12139   -0.37119
 H   -0.14616    0.66443    1.46813
 C   -1.22680   -1.18366    1.69427
 C   -1.18941   -2.58325    2.38775
 C   -0.01280   -3.37023    1.93151
 O    0.93537   -3.68238    2.72660
 O    0.22452   -3.63269    0.69754
 H   -1.67155   -1.27179    0.69368
 H   -1.90875   -0.56333    2.29252
 H   -2.11597   -3.12977    2.15599
 H   -1.13805   -2.46613    3.48010
 O    2.22546   -0.85787    2.69781
 H    2.67345   -0.74676    3.56782
Sr    2.55237   -3.00206    0.98294
