19
Energy: -102188.5773668  eV PBE+vdW (tier 2 basis)
 N    0.90895   -1.04334    0.41683
 C    0.45420   -0.36997    1.48922
 C    1.39075    0.37092    2.27313
 O    1.10069    1.02942    3.33338
 H    1.89432   -1.02056    0.16550
 H    0.27569   -1.49168   -0.23774
 H   -1.80726   -3.50858    4.14944
 C   -1.01778   -0.39589    1.78342
 C   -1.53859   -1.64590    2.52885
 C   -1.37157   -1.63674    4.02923
 O   -1.08752   -0.61643    4.67980
 O   -1.57150   -2.74286    4.71089
 H   -1.55662   -0.33897    0.82591
 H   -1.30116    0.50974    2.33331
 H   -1.09180   -2.56671    2.12354
 H   -2.62464   -1.74373    2.35108
 O    2.64739    0.33762    1.81024
 H    3.23289    0.90020    2.35189
Sr    0.02534    1.31535    5.28399
