19
Energy: -102186.8536969  eV PBE+vdW (tier 2 basis)
 N    0.31206    0.37374    0.34046
 C    0.16490   -0.11255    1.77490
 C    1.50565   -0.71317    2.20785
 O    1.55163   -1.33883    3.31064
 H    1.17820    0.92774    0.23747
 H    0.39339   -0.41207   -0.32250
 H   -0.01560    0.78704    2.38306
 C   -1.01379   -1.08062    1.98568
 C   -1.01381   -2.44329    1.24170
 C    0.27581   -3.19219    1.36513
 O    1.24447   -2.99270    0.54656
 O    0.56448   -3.99195    2.30614
 H   -1.95410   -0.56501    1.74273
 H   -1.04711   -1.25786    3.07068
 H   -1.22444   -2.32557    0.16576
 H   -1.83207   -3.05029    1.65605
 O    2.51812   -0.66564    1.45128
 H   -0.48648    0.95951    0.05483
Sr    3.01570   -3.09629    2.37458
