19
Energy: -102186.9141458  eV PBE+vdW (tier 2 basis)
 N   -0.12320    0.04967    0.20435
 C   -0.18736    0.02659    1.59630
 C    1.27722   -0.06942    2.27445
 O    2.14487   -0.81891    1.86244
 H    0.16616   -0.79821   -0.30434
 H   -0.35219    0.89151   -0.32055
 H   -0.62497    0.96948    1.95039
 C   -1.00904   -1.19366    2.20487
 C   -1.06697   -2.48813    1.39728
 C    0.34753   -2.99014    1.06766
 O    0.98227   -3.65983    1.93055
 O    0.87671   -2.58297   -0.02842
 H   -2.03396   -0.78966    2.26169
 H   -0.66725   -1.38309    3.23107
 H   -1.60805   -2.35224    0.45194
 H   -1.56984   -3.25283    2.00284
 O    1.47954    0.67687    3.33237
 H    0.74102    1.27306    3.57079
Sr    3.05450   -2.98209    0.96533
