19
Energy: -102186.9504652  eV PBE+vdW (tier 2 basis)
 N    0.44724   -0.66547    0.13990
 C    0.00131   -0.20027    1.51698
 C    1.33365   -0.11832    2.41176
 O    1.15633    0.14078    3.63221
 H   -0.10952   -0.24964   -0.61960
 H    0.39642   -1.69067    0.04633
 H   -0.32199    0.84616    1.40431
 C   -1.12035   -1.09259    2.05030
 C   -2.02170   -0.47046    3.13097
 C   -1.41079   -0.52984    4.49591
 O   -1.39930    0.46675    5.28441
 O   -0.80379   -1.57114    4.92869
 H   -0.72095   -2.06136    2.39578
 H   -1.78010   -1.33139    1.19680
 H   -2.96014   -1.04921    3.17967
 H   -2.30981    0.56496    2.90228
 O    2.36793   -0.29145    1.76194
 H    1.45097   -0.40738    0.03743
Sr    0.92561   -0.12643    5.94893
