20
Energy: -237562.20968 eV PBE+vdW (tier 2 basis)
C    -1.948229  0.059225  0.137248
C    -0.688437  0.328974  0.893938
O    -0.171289  1.485779  0.915978
H    -2.023981  -0.977753  -0.207048
H    -1.983511  0.735346  -0.724637
H    -2.828675  0.282918  0.760563
N    -0.081997  -0.668206  1.585546
C    -0.825744  -1.608669  2.396369
C    -1.338561  -0.899744  3.678100
O    -1.213164  0.359417  3.798327
H    0.848980  -0.431351  1.927894
H    -1.682862  -2.006645  1.836086
H    -0.186118  -2.462265  2.656210
N    -1.902111  -1.663962  4.595649
C    -2.473591  -1.216368  5.867704
H    -1.940780  -2.665367  4.410004
H    -1.881049  -1.614710  6.700429
H    -3.502406  -1.584887  5.951942
H    -2.470934  -0.125246  5.902246
Ba    -0.409543  2.615513  3.098454
