20
Energy: -237561.57801 eV PBE+vdW (tier 2 basis)
C    -0.003349  0.363778  0.168401
C    -0.171499  0.466342  1.645466
O    0.896558  0.575727  2.394607
H    0.529801  1.251014  -0.200641
H    -0.953066  0.275779  -0.365592
H    0.618622  -0.510732  -0.068217
N    -1.336352  0.452536  2.232648
C    -2.684703  0.345586  1.695024
C    -3.562296  0.400032  2.975170
O    -2.978071  0.511103  4.065662
H    -1.455293  0.525793  3.281303
H    -2.921540  1.179200  1.018824
H    -2.834397  -0.599623  1.154244
N    -4.886507  0.324581  2.828106
C    -5.627148  0.193379  1.573431
H    -5.413710  0.364753  3.697407
H    -5.371639  -0.735910  1.047154
H    -5.458966  1.053354  0.911623
H    -6.693751  0.159274  1.810422
Ba    2.718307  0.771032  3.752958
