20
Energy: -237561.451556 eV PBE+vdW (tier 2 basis)
C    -1.764044  0.408419  -0.104445
C    -1.007566  0.823563  1.123805
O    -0.106565  1.784638  0.938621
H    -2.505450  -0.373198  0.083084
H    -1.060336  0.041379  -0.864197
H    -2.279818  1.278869  -0.532229
N    -1.155155  0.337619  2.309568
C    -2.101858  -0.710302  2.637805
C    -1.897640  -0.918499  4.137615
O    -0.999849  -0.158900  4.666460
H    -0.700729  0.382773  3.798042
H    -3.152043  -0.429695  2.453325
H    -1.907065  -1.660130  2.112891
N    -2.572976  -1.792770  4.837450
C    -2.423565  -2.037809  6.277159
H    -3.263443  -2.350794  4.338416
H    -3.377360  -1.838679  6.779082
H    -1.650572  -1.378856  6.678053
H    -2.139045  -3.083894  6.438205
Ba    1.390080  3.397268  0.555287
