20
Energy: -237561.502451 eV PBE+vdW (tier 2 basis)
C    0.158564  -0.020302  -0.095189
C    -0.025440  0.418927  1.321487
O    1.028395  0.607875  2.072832
H    0.761210  0.720927  -0.638309
H    -0.795055  -0.143729  -0.617936
H    0.697098  -0.977851  -0.120071
N    -1.230878  0.604836  1.779957
C    -1.694851  1.022276  3.090069
C    -3.245894  1.028633  2.913698
O    -3.687207  0.706742  1.804001
H    -2.101386  0.459852  1.195231
H    -1.388880  0.310325  3.870065
H    -1.322223  2.024087  3.347719
N    -3.975165  1.380896  3.974761
C    -5.438498  1.434960  3.967999
H    -3.496769  1.625634  4.836042
H    -5.843478  0.745976  4.718392
H    -5.791079  1.140665  2.976316
H    -5.778306  2.453739  4.188244
Ba    3.163842  0.771533  2.876694
