20
Energy: -237562.18635 eV PBE+vdW (tier 2 basis)
C    0.446056  1.528557  1.007984
C    -0.750532  1.537605  1.902931
O    -0.641426  1.778279  3.141878
H    0.922768  0.535286  1.011907
H    0.204672  1.791525  -0.027485
H    1.179540  2.239457  1.405196
N    -1.980704  1.272196  1.395869
C    -2.210476  0.194830  0.454930
C    -2.064351  -1.162524  1.176641
O    -1.684044  -1.196601  2.392005
H    -2.744846  1.454573  2.046075
H    -3.212019  0.292525  0.015248
H    -1.498422  0.245815  -0.380922
N    -2.338284  -2.265945  0.504214
C    -2.791767  -2.361409  -0.890972
H    -2.231779  -3.137166  1.023052
H    -2.842123  -3.419992  -1.158047
H    -2.085709  -1.869109  -1.570418
H    -3.791806  -1.925674  -1.010732
Ba    -0.974284  -0.215100  4.566760
