20
Energy: -237561.277094 eV PBE+vdW (tier 2 basis)
C    0.368966  -0.064755  -0.032365
C    -0.042678  0.123064  1.397459
O    0.855294  -0.224279  2.323861
H    -0.423176  0.243209  -0.719904
H    0.603986  -1.121719  -0.224338
H    1.268153  0.529735  -0.249959
N    -1.209360  0.596954  1.661573
C    -1.725400  0.825200  2.991240
C    -3.125503  1.385796  2.731274
O    -3.438168  1.493576  1.485170
H    -2.553301  1.129856  1.034769
H    -1.802670  -0.094677  3.594664
H    -1.136866  1.556750  3.569797
N    -3.982470  1.744690  3.654067
C    -3.804485  1.694709  5.104291
H    -4.875496  2.099981  3.307260
H    -3.896282  2.704980  5.520301
H    -2.819882  1.293149  5.356556
H    -4.575973  1.053079  5.546040
Ba    2.820315  -1.003294  3.099243
