20
Energy: -237561.57679 eV PBE+vdW (tier 2 basis)
C    0.016417  0.386735  0.072327
C    -0.066085  0.620676  1.544412
O    1.010701  0.921818  2.221212
H    1.042460  0.499053  -0.285889
H    -0.629831  1.095737  -0.465343
H    -0.341366  -0.622784  -0.176836
N    -1.199720  0.532675  2.186303
C    -2.531507  0.219535  1.695815
C    -3.392615  0.289037  2.986161
O    -2.810758  0.567786  4.047017
H    -1.302952  0.690201  3.226012
H    -2.873546  0.951252  0.949201
H    -2.574174  -0.781842  1.242701
N    -4.700734  0.046371  2.878857
C    -5.437875  -0.285834  1.659897
H    -5.216873  0.104760  3.753736
H    -5.382056  0.522888  0.919123
H    -6.489583  -0.422075  1.925223
H    -5.081587  -1.223692  1.213366
Ba    2.852681  1.450701  3.462707
