20
Energy: -237562.187216 eV PBE+vdW (tier 2 basis)
C    -0.614754  3.121360  1.852472
C    -0.232353  1.712714  1.532531
O    0.913682  1.260750  1.827732
H    0.288357  3.741145  1.815257
H    -1.012257  3.189373  2.877768
H    -1.364781  3.525171  1.163986
N    -1.122841  0.887435  0.926937
C    -2.514362  0.829075  1.325846
C    -2.627464  0.159514  2.712710
O    -1.571899  -0.149017  3.355756
H    -0.721466  0.004579  0.611658
H    -2.953222  1.836065  1.366221
H    -3.092098  0.269013  0.578499
N    -3.831611  -0.075268  3.202244
C    -5.120274  0.222151  2.560341
H    -3.856413  -0.522668  4.118103
H    -5.197624  1.285417  2.303562
H    -5.914995  -0.016643  3.271561
H    -5.263450  -0.391054  1.661603
Ba    0.884829  -0.348110  3.705211
