20
Energy: -237562.210467 eV PBE+vdW (tier 2 basis)
C    -1.864076  1.167688  -0.069041
C    -0.571469  0.960265  0.650963
O    0.487548  1.549690  0.280516
H    -1.873771  2.187543  -0.470659
H    -2.738413  1.018816  0.573445
H    -1.942576  0.481598  -0.927397
N    -0.510579  0.119941  1.714238
C    -1.163769  -1.171829  1.715796
C    -0.396718  -2.144409  0.780850
O    0.541070  -1.705853  0.043347
H    0.363916  0.171617  2.236378
H    -1.201283  -1.567995  2.738963
H    -2.201514  -1.078972  1.367393
N    -0.777195  -3.408726  0.796559
C    -0.217193  -4.494904  -0.010666
H    -1.531699  -3.661511  1.433437
H    -1.019178  -4.970321  -0.587356
H    0.243397  -5.242614  0.646282
H    0.533922  -4.089995  -0.691460
Ba    2.122579  0.036970  -0.784588
