30
Energy: -38163.9731406 eV PBE+vdW (tier 2 basis)
C    0.901351  1.797230  1.200804
C    0.607984  0.946064  2.399248
O    1.644931  0.377810  2.977471
H    -0.011290  2.211479  0.763465
H    1.419823  1.201566  0.437418
H    1.583560  2.611494  1.481759
N    -0.628535  0.821667  2.804203
C    -0.902585  0.045507  4.021249
C    -0.657889  -1.457627  3.792964
O    0.440280  -1.988916  4.162529
H    -1.741291  2.357906  2.887108
H    -0.204429  0.324073  4.832023
C    -2.345638  0.337975  4.507184
C    -2.632908  1.793004  4.680876
N    -2.324674  2.699992  3.681289
C    -3.263208  2.509731  5.666233
C    -2.729222  3.922764  4.025448
N    -3.308568  3.819681  5.230306
H    -2.541413  -0.184435  5.451960
H    -3.073212  -0.046774  3.773691
H    -3.686105  2.203298  6.614289
H    -2.614970  4.831953  3.447897
H    -3.727057  4.595962  5.736911
N    -1.580775  -2.178191  3.175870
C    -1.454344  -3.598551  2.847614
H    -2.416379  -1.698536  2.853886
H    -0.847090  -4.096157  3.608601
H    -0.986790  -3.728524  1.862533
H    -2.452663  -4.045583  2.829046
Ca    2.440106  -1.228863  3.942124
