30
Energy: -38164.0030252 eV PBE+vdW (tier 2 basis)
C    -0.106174  1.703226  0.701935
C    -0.036698  0.938246  1.980948
O    1.104986  0.553293  2.427229
H    -1.124146  2.022536  0.459349
H    0.280829  1.081088  -0.117024
H    0.550461  2.580812  0.774043
N    -1.166997  0.678894  2.623230
C    -1.286041  0.124884  3.985883
C    -0.843234  -1.353513  4.046939
O    0.392538  -1.631770  4.208559
H    -2.027266  1.250739  2.348565
H    -0.580623  0.661524  4.642748
C    -2.727015  0.371395  4.500998
C    -3.227009  1.759322  4.249980
N    -3.256381  2.245386  2.952228
C    -3.785516  2.681594  5.103577
C    -3.815970  3.443802  3.019830
N    -4.152167  3.737113  4.301881
H    -2.762604  0.134876  5.571341
H    -3.427685  -0.315679  3.994866
H    -3.966927  2.674937  6.171215
H    -4.000745  4.112985  2.187005
H    -4.618057  4.584010  4.613599
N    -1.745084  -2.309527  3.947829
C    -1.468364  -3.746223  4.001919
H    -2.714052  -2.025817  3.821540
H    -2.315717  -4.248230  4.478822
H    -0.561520  -3.922807  4.585920
H    -1.339776  -4.147833  2.988274
Ca    2.229954  -0.779261  3.557773
