30
Energy: -38163.3911109 eV PBE+vdW (tier 2 basis)
C    0.652236  1.937010  0.488187
C    0.391264  1.106779  1.701938
O    1.326622  0.387555  2.199687
H    1.496567  2.613937  0.673872
H    -0.215010  2.525742  0.172425
H    0.949144  1.271020  -0.334535
N    -0.819407  1.122866  2.245887
C    -1.327538  0.301317  3.364878
C    -2.766636  0.818459  3.663737
O    -2.940041  1.599720  4.594680
H    -1.500662  1.736282  1.802269
H    -1.359412  -0.743802  3.021042
C    -0.494317  0.336470  4.672779
C    0.165116  1.617324  5.088656
N    1.554284  1.786688  5.010768
C    -0.378128  2.736982  5.666984
C    1.821476  2.987858  5.540840
N    0.678610  3.574575  5.938068
H    0.257994  -0.471864  4.626357
H    -1.178696  0.019361  5.471182
H    -1.407725  2.979925  5.896867
H    2.800146  3.440811  5.654236
H    0.610691  4.485053  6.386709
N    -3.749469  0.415375  2.825881
C    -3.717715  -0.645180  1.817984
H    -4.663183  0.791956  3.073553
H    -4.628521  -0.571097  1.216343
H    -3.691233  -1.645294  2.273024
H    -2.868250  -0.533443  1.132662
Ca    2.686400  0.221726  3.778131
