30
Energy: -38163.5652402 eV PBE+vdW (tier 2 basis)
C    -1.455297  0.633580  -0.061510
C    -1.156506  0.632055  1.410847
O    -0.529005  1.510050  1.989153
H    -2.100974  1.492760  -0.287130
H    -1.941748  -0.282012  -0.416131
H    -0.519740  0.787244  -0.613066
N    -1.629278  -0.465432  2.136257
C    -1.490496  -0.440428  3.576322
C    -0.847916  -1.724275  4.077147
O    -1.472969  -2.488554  4.907667
H    -2.235312  -1.144727  1.686988
H    -0.773699  0.391592  3.737951
C    -2.810995  -0.054842  4.291782
C    -2.688084  0.451227  5.697506
N    -2.737571  -0.364963  6.835525
C    -2.549233  1.754043  6.108173
C    -2.632885  0.451198  7.893806
N    -2.515452  1.724898  7.482705
H    -3.540952  -0.879684  4.228129
H    -3.243460  0.751822  3.686188
H    -2.485631  2.678531  5.546635
H    -2.645985  0.160098  8.938541
H    -2.433344  2.535284  8.092314
N    0.356046  -2.078898  3.667966
C    1.261635  -1.360719  2.765820
H    0.676844  -2.984646  4.009880
H    2.288905  -1.598900  3.058298
H    1.111485  -0.279127  2.837477
H    1.099525  -1.681609  1.729111
Ca    -2.692671  -2.645382  6.580325
