30
Energy: -38163.8924598 eV PBE+vdW (tier 2 basis)
C    -1.713363  -2.404946  0.775009
C    -1.748005  -1.295667  1.784364
O    -1.206779  -1.305903  2.869720
H    -2.627648  -2.477014  0.170864
H    -1.511047  -3.355991  1.277006
H    -0.880124  -2.214139  0.079544
N    -2.528807  -0.133304  1.418812
C    -2.047497  1.147492  2.006076
C    -2.288670  1.128717  3.517211
O    -3.408236  0.709795  3.957453
H    -2.664905  -0.052151  0.407531
H    -0.964563  1.235557  1.831202
C    -2.736467  2.383016  1.349231
C    -4.108214  2.243912  0.742530
N    -5.150205  1.439791  1.215711
C    -4.579807  2.986917  -0.314236
C    -6.215620  1.717643  0.452962
N    -5.901253  2.644913  -0.468274
H    -2.072934  2.749355  0.555334
H    -2.757228  3.185610  2.103151
H    -4.099381  3.728973  -0.940753
H    -7.202206  1.274951  0.538942
H    -6.538809  3.030573  -1.160808
N    -1.363618  1.635015  4.307275
C    -1.467200  1.742243  5.763297
H    -0.471779  1.885518  3.886700
H    -2.513147  1.636323  6.059770
H    -1.089453  2.720702  6.078284
H    -0.868701  0.953264  6.236435
Ca    -4.780333  -0.310164  2.701655
