30
Energy: -38163.7996362 eV PBE+vdW (tier 2 basis)
C    -0.340917  1.297072  1.100525
C    0.000774  0.062929  1.881918
O    1.287090  -0.160703  2.063075
H    0.129389  1.254215  0.108543
H    0.072824  2.179266  1.608080
H    -1.421360  1.425402  0.996102
N    -0.973121  -0.685992  2.317106
C    -0.776283  -1.955106  3.035557
C    0.232608  -1.954056  4.194403
O    1.475761  -2.189791  4.044951
H    -2.252308  -1.259987  1.164279
H    -1.749459  -2.160107  3.512255
C    -0.529835  -3.119880  2.041109
C    -1.705688  -3.286598  1.126997
N    -2.488755  -2.204038  0.757990
C    -2.253198  -4.381943  0.507991
C    -3.474292  -2.601504  -0.046942
N    -3.339563  -3.925015  -0.211927
H    -0.356352  -4.062633  2.577131
H    0.374512  -2.913208  1.447849
H    -1.970787  -5.426721  0.521146
H    -4.244307  -1.978667  -0.485783
H    -3.954766  -4.501127  -0.781320
N    -0.270133  -1.706007  5.396496
C    0.497700  -1.649741  6.638947
H    -1.267589  -1.517133  5.454068
H    -0.131831  -2.007042  7.459678
H    0.809638  -0.619331  6.856481
H    1.378262  -2.292103  6.552684
Ca    2.890987  -1.087451  2.873611
