30
Energy: -38164.2560963 eV PBE+vdW (tier 2 basis)
C    -1.840802  -2.800652  1.153494
C    -1.668787  -1.507074  1.870396
O    -0.611925  -0.821338  1.748167
H    -2.817742  -3.264433  1.323943
H    -1.049646  -3.493802  1.471498
H    -1.699266  -2.631785  0.077325
N    -2.675898  -1.057524  2.666382
C    -2.485460  0.219265  3.333336
C    -1.730559  0.071255  4.671905
O    -0.482086  0.288649  4.669819
H    -3.525676  -1.606663  2.760781
H    -1.774878  0.672204  2.646595
C    -3.559632  1.306429  3.279862
C    -2.825104  2.633593  3.224792
N    -1.476183  2.751426  2.846533
C    -3.336658  3.888850  3.437210
C    -1.220028  4.063514  2.831138
N    -2.313166  4.768158  3.179751
H    -4.265055  1.289371  4.121037
H    -4.151625  1.168825  2.361831
H    -4.325623  4.222434  3.727080
H    -0.274183  4.531673  2.579986
H    -2.371362  5.781829  3.237072
N    -2.395936  -0.296340  5.754797
C    -1.798383  -0.521343  7.073915
H    -3.399602  -0.438105  5.671705
H    -0.722273  -0.345977  7.010790
H    -1.986826  -1.553788  7.390994
H    -2.243712  0.166560  7.802201
Ca    0.317078  0.974791  2.737665
