30
Energy: -38163.6026528 eV PBE+vdW (tier 2 basis)
C    -0.516380  1.733788  0.941526
C    -0.547896  1.120923  2.298551
O    0.384522  1.389775  3.147629
H    -0.476955  2.827605  1.028874
H    -1.377970  1.447752  0.330689
H    0.406258  1.419703  0.432659
N    -1.522101  0.294483  2.624003
C    -1.599768  -0.532673  3.818821
C    -2.287604  -1.841296  3.286836
O    -2.934641  -1.750346  2.243082
H    -2.201798  -0.049870  1.918282
H    -0.578290  -0.748547  4.170381
C    -2.484638  0.053796  4.953877
C    -2.371850  1.499212  5.339929
N    -1.209475  2.167845  5.746157
C    -3.438634  2.348076  5.514866
C    -1.601775  3.384600  6.157632
N    -2.932057  3.516993  6.028694
H    -2.323375  -0.570814  5.846979
H    -3.534218  -0.107019  4.670829
H    -4.498628  2.207099  5.339986
H    -0.965992  4.170144  6.554737
H    -3.472863  4.339477  6.285867
N    -2.158277  -2.945321  4.036183
C    -2.792460  -4.221613  3.697324
H    -1.564571  -2.918328  4.858216
H    -3.394274  -4.576410  4.541813
H    -2.031413  -4.972062  3.451875
H    -3.437867  -4.065157  2.829176
Ca    0.975988  1.844188  5.063527
