30
Energy: -38163.7957831 eV PBE+vdW (tier 2 basis)
C    0.568853  0.597184  0.504925
C    -0.069028  0.688590  1.846364
O    0.254342  1.644604  2.656169
H    1.656609  0.499872  0.628832
H    0.389504  1.527362  -0.051463
H    0.196579  -0.250505  -0.078342
N    -0.963688  -0.198890  2.220726
C    -1.628090  -0.255103  3.512742
C    -2.308188  -1.660822  3.498260
O    -2.391168  -2.251213  2.421755
H    -1.260912  -1.000540  1.628927
H    -0.869687  -0.210056  4.310036
C    -2.669671  0.899960  3.698422
C    -2.652792  1.536460  5.049326
N    -1.619705  2.380949  5.482753
C    -3.586003  1.443885  6.051317
C    -1.953118  2.774409  6.720988
N    -3.124580  2.227285  7.085188
H    -3.677635  0.516782  3.496193
H    -2.491330  1.662360  2.925641
H    -4.531275  0.916954  6.102290
H    -1.385232  3.439146  7.363774
H    -3.596464  2.381774  7.973291
N    -2.791932  -2.101400  4.671637
C    -3.474782  -3.388483  4.818637
H    -2.588329  -1.570859  5.512054
H    -2.831187  -4.111098  5.335572
H    -3.710008  -3.769321  3.821300
H    -4.402561  -3.256575  5.386422
Ca    0.219476  3.012291  4.187262
