30
Energy: -38163.8446939 eV PBE+vdW (tier 2 basis)
C    0.033523  -1.261284  0.274891
C    -0.272639  -0.879661  1.689925
O    0.739144  -0.451413  2.416173
H    0.454450  -0.399380  -0.260924
H    -0.856089  -1.622189  -0.248474
H    0.800177  -2.047802  0.258299
N    -1.499133  -0.977148  2.134133
C    -1.745676  -0.527150  3.509508
C    -0.990559  -1.384870  4.541086
O    -0.033945  -0.854457  5.205731
H    -3.015915  -0.464057  1.162168
H    -1.334121  0.488006  3.655103
C    -3.265845  -0.450512  3.814258
C    -4.033930  0.329355  2.797764
N    -3.833324  0.123978  1.443004
C    -5.053182  1.242190  2.899067
C    -4.674495  0.875636  0.732193
N    -5.428255  1.556431  1.607348
H    -3.419552  0.000444  4.802976
H    -3.697217  -1.459669  3.859842
H    -5.541947  1.675450  3.762174
H    -4.741298  0.933017  -0.347356
H    -6.170920  2.201473  1.349063
N    -1.272435  -2.665821  4.738725
C    -2.209493  -3.539732  4.028583
H    -0.714888  -3.102022  5.473339
H    -3.142740  -3.658105  4.594109
H    -1.743090  -4.525364  3.923536
H    -2.407351  -3.144722  3.028586
Ca    1.685747  -0.055622  4.183167
