30
Energy: -38163.8502498 eV PBE+vdW (tier 2 basis)
C    0.037985  0.496119  0.044078
C    -0.053747  0.439336  1.530969
O    0.989620  0.591667  2.247843
H    0.415743  1.487803  -0.244159
H    -0.919305  0.319421  -0.456696
H    0.774221  -0.238507  -0.307811
N    -1.246431  0.241040  2.103926
C    -1.507537  0.316355  3.549717
C    -1.079782  -0.993402  4.245173
O    0.161962  -1.185220  4.474058
H    -2.045917  0.122187  1.485368
H    -0.840173  1.083050  3.966828
C    -2.939394  0.780872  3.825713
C    -3.103378  1.039488  5.297713
N    -2.020958  0.885666  6.143791
C    -4.207309  1.457717  6.006673
C    -2.463783  1.209022  7.350579
N    -3.775802  1.559623  7.307312
H    -3.680595  0.055853  3.444315
H    -3.107905  1.701988  3.245998
H    -5.222370  1.696396  5.713624
H    -1.885500  1.205095  8.267834
H    -4.341545  1.856119  8.096904
N    -1.979720  -1.913328  4.520790
C    -1.708130  -3.187084  5.186293
H    -2.955616  -1.663719  4.379932
H    -2.405072  -3.940455  4.806311
H    -1.845507  -3.080208  6.270589
H    -0.681499  -3.497739  4.978909
Ca    1.935443  -0.133153  4.001425
