30
Energy: -38163.6909541 eV PBE+vdW (tier 2 basis)
C    1.125310  -0.942489  1.362806
C    0.412627  -0.980956  2.683911
O    0.936333  -1.282942  3.744250
H    1.926367  -0.193336  1.415632
H    0.472838  -0.712690  0.512843
H    1.611650  -1.911574  1.194757
N    -0.964208  -0.667558  2.653904
C    -1.630372  -0.507736  3.925958
C    -2.803961  -1.458759  4.090788
O    -3.599938  -1.308519  5.090279
H    -1.322466  -0.174991  1.839172
H    -0.858045  -0.870069  4.641593
C    -1.986766  0.968873  4.296925
C    -1.562812  1.402111  5.666662
N    -2.237799  1.058501  6.846051
C    -0.479118  2.174492  6.000732
C    -1.554486  1.626433  7.851835
N    -0.497005  2.298573  7.370488
H    -3.059570  1.161950  4.141581
H    -1.467302  1.614684  3.578832
H    0.285505  2.638253  5.389715
H    -1.796581  1.575721  8.908078
H    0.174955  2.818887  7.929705
N    -2.940818  -2.440996  3.230208
C    -3.938542  -3.505744  3.259565
H    -2.232407  -2.446521  2.491671
H    -4.661935  -3.309869  4.054038
H    -3.445065  -4.469074  3.438915
H    -4.456188  -3.545773  2.294269
Ca    -4.043111  -0.364108  6.883712
