30
Energy: -38163.7893605 eV PBE+vdW (tier 2 basis)
C    0.716136  1.872473  1.113202
C    0.514459  0.971408  2.282930
O    1.514938  0.575228  2.968488
H    1.458079  1.437786  0.431339
H    1.134680  2.821129  1.480263
H    -0.207482  2.080692  0.563915
N    -0.722825  0.589846  2.605044
C    -1.114474  -0.078381  3.857999
C    -0.820446  -1.584554  3.796883
O    0.380571  -1.980781  3.981349
H    -1.481809  0.988301  2.055381
H    -0.468329  0.341092  4.648404
C    -2.541500  0.335539  4.237587
C    -2.553891  1.803953  4.561288
N    -1.421567  2.397101  5.082312
C    -3.584796  2.714781  4.489430
C    -1.763747  3.650530  5.333516
N    -3.060497  3.881846  4.991419
H    -2.841692  -0.252238  5.120628
H    -3.264412  0.108217  3.436175
H    -4.614226  2.636836  4.161142
H    -1.120711  4.416512  5.753223
H    -3.559300  4.760364  5.094177
N    -1.803657  -2.433029  3.572454
C    -1.686130  -3.890505  3.503849
H    -2.734687  -2.039609  3.451544
H    -1.922201  -4.232140  2.488486
H    -2.394302  -4.343095  4.207484
H    -0.667599  -4.184230  3.764942
Ca    2.289418  -1.030073  4.078147
