30
Energy: -38163.7682393 eV PBE+vdW (tier 2 basis)
C    -0.745066  -1.604089  0.260657
C    -0.937485  -0.560836  1.320908
O    -0.131375  -0.381497  2.242538
H    0.125763  -1.320538  -0.346930
H    -1.610420  -1.727735  -0.400146
H    -0.503660  -2.561863  0.736022
N    -2.067869  0.221788  1.235208
C    -2.217869  1.418107  2.052480
C    -2.653981  1.083882  3.496791
O    -3.780170  1.498583  3.969964
H    -2.746181  0.045416  0.501263
H    -1.208704  1.850324  2.161986
C    -3.079645  2.488206  1.345166
C    -4.390561  2.074632  0.741511
N    -5.594021  1.948389  1.448624
C    -4.647543  1.831888  -0.587111
C    -6.533153  1.635819  0.546088
N    -5.991908  1.555561  -0.681009
H    -2.463463  2.891341  0.530796
H    -3.221502  3.333990  2.035001
H    -4.004262  1.868128  -1.458529
H    -7.587241  1.468869  0.741770
H    -6.500162  1.347829  -1.537590
N    -1.798485  0.389916  4.201217
C    -1.956252  -0.049825  5.581587
H    -0.950193  0.091957  3.649654
H    -1.047763  0.204977  6.139379
H    -2.087502  -1.139204  5.611466
H    -2.817845  0.439244  6.042445
Ca    -5.702481  2.182739  3.749792
