30
Energy: -38163.6649842 eV PBE+vdW (tier 2 basis)
C    0.251210  0.002331  0.135771
C    0.117719  -0.034545  1.617975
O    1.173059  -0.002166  2.365739
H    0.848646  -0.859381  -0.193727
H    0.798150  0.907354  -0.161962
H    -0.717854  -0.018058  -0.372022
N    -1.069505  -0.100867  2.176101
C    -1.356253  -0.180958  3.602240
C    -2.875219  -0.550223  3.614052
O    -3.514018  -0.333893  2.582038
H    -1.958546  -0.114883  1.635355
H    -0.744944  -0.979760  4.046237
C    -1.085644  1.183253  4.329007
C    -0.338030  1.101487  5.620527
N    1.011566  0.730833  5.716776
C    -0.793266  1.402538  6.879535
C    1.330712  0.813141  7.017668
N    0.267621  1.213460  7.734503
H    -2.041144  1.690812  4.511882
H    -0.544987  1.839332  3.630877
H    -1.761333  1.742397  7.226986
H    2.296786  0.597373  7.462505
H    0.256963  1.361912  8.741007
N    -3.430890  -1.044385  4.734241
C    -2.810515  -1.469715  5.980455
H    -4.431756  -1.211426  4.637349
H    -3.089492  -0.806583  6.810349
H    -1.719987  -1.476373  5.890904
H    -3.134693  -2.488455  6.225642
Ca    2.452136  0.272818  3.942333
