30
Energy: -38163.3079803 eV PBE+vdW (tier 2 basis)
C    -0.099319  -0.053212  -0.103083
C    0.027725  0.391432  1.332024
O    0.965535  1.015588  1.780404
H    0.657242  0.476213  -0.688888
H    -1.091302  0.152719  -0.527536
H    0.098393  -1.131525  -0.201160
N    -1.050504  0.091694  2.213029
C    -1.916724  -1.060603  2.098339
C    -3.322237  -0.715005  2.613166
O    -4.078822  -1.622823  3.113701
H    -0.783739  0.346616  3.166256
H    -2.056059  -1.265150  1.023212
C    -1.327027  -2.366117  2.708129
C    -1.029190  -2.346920  4.174896
N    -1.956022  -2.736504  5.151846
C    0.140777  -1.996485  4.802981
C    -1.332428  -2.620707  6.332254
N    -0.077618  -2.175628  6.149722
H    -0.391799  -2.559125  2.166340
H    -1.972691  -3.221849  2.447162
H    1.093591  -1.661278  4.409373
H    -1.747337  -2.851683  7.307481
H    0.604699  -2.017944  6.888169
N    -3.711481  0.532243  2.478088
C    -5.025638  1.083630  2.793842
H    -2.985066  1.155547  2.111667
H    -5.387611  1.657408  1.933047
H    -4.953947  1.754417  3.659227
H    -5.725060  0.271855  3.006874
Ca    -4.119828  -3.186198  4.492191
