30
Energy: -38164.9370956 eV PBE+vdW (tier 2 basis)
C    -1.253764  -2.489223  -0.044590
C    -1.653068  -1.214835  0.629439
O    -1.144509  -0.890020  1.735302
H    -0.171113  -2.466374  -0.230257
H    -1.774952  -2.671112  -0.989951
H    -1.441137  -3.327871  0.638772
N    -2.552912  -0.431597  0.002942
C    -3.107938  0.864059  0.432474
C    -2.022451  1.862599  0.893280
O    -1.673255  1.947150  2.105076
H    -2.904918  -0.784743  -0.882161
H    -3.528962  1.288365  -0.488612
C    -4.310032  0.788798  1.429401
C    -4.392683  -0.275707  2.482044
N    -3.540586  -0.411040  3.580191
C    -5.422356  -1.177541  2.617137
C    -4.062982  -1.374108  4.343673
N    -5.194852  -1.852553  3.791436
H    -5.212764  0.676306  0.815735
H    -4.399121  1.779833  1.900887
H    -6.295140  -1.367454  2.003962
H    -3.662908  -1.738550  5.284008
H    -5.790157  -2.573399  4.190930
N    -1.519419  2.664032  -0.035712
C    -0.508834  3.695605  0.203747
H    -1.856782  2.560633  -0.989274
H    -0.500114  3.951177  1.266103
H    -0.762038  4.583207  -0.385074
H    0.483077  3.335650  -0.098634
Ca    -1.321334  0.339712  3.515727
