30
Energy: -38163.5112458 eV PBE+vdW (tier 2 basis)
C    -0.020038  0.202125  -0.135149
C    -0.144176  0.318748  1.343633
O    0.885763  0.175020  2.097071
H    0.714898  0.933470  -0.498471
H    -0.969723  0.358022  -0.656897
H    0.367392  -0.795372  -0.386635
N    -1.324379  0.566168  1.902828
C    -1.530097  0.574437  3.356383
C    -2.993889  0.330159  3.791193
O    -3.176607  -0.377860  4.771842
H    -2.141194  0.591371  1.294825
H    -1.007130  -0.305082  3.756526
C    -0.956725  1.860612  4.038302
C    -0.381732  1.571844  5.385328
N    0.838162  0.900390  5.548903
C    -0.906567  1.830925  6.623854
C    1.021465  0.776723  6.873045
N    -0.008718  1.326223  7.535745
H    -1.746405  2.616337  4.134353
H    -0.194160  2.313514  3.386662
H    -1.828255  2.312911  6.925055
H    1.868988  0.315643  7.368967
H    -0.106493  1.361032  8.547815
N    -3.971960  0.931299  3.065520
C    -5.386083  0.783136  3.422237
H    -3.738285  1.687334  2.429030
H    -5.997480  0.920944  2.525241
H    -5.686091  1.513775  4.185070
H    -5.542061  -0.223331  3.821208
Ca    2.106977  0.102242  3.786881
