30
Energy: -38164.1732006 eV PBE+vdW (tier 2 basis)
C    -0.702236  -0.908547  -0.071187
C    -0.445966  -0.897715  1.393378
O    0.662370  -1.231252  1.889262
H    -1.660159  -0.464905  -0.358242
H    -0.713966  -1.966414  -0.382186
H    0.124097  -0.433213  -0.612271
N    -1.423268  -0.506495  2.276147
C    -2.342468  0.621607  2.123714
C    -1.549297  1.854258  1.629922
O    -0.299489  1.906109  1.837331
H    -1.304198  -0.857371  3.225871
H    -3.141505  0.374124  1.411784
C    -2.995556  0.889032  3.497151
C    -2.106712  1.307638  4.646662
N    -0.744995  1.016255  4.805454
C    -2.557309  1.927273  5.788361
C    -0.416252  1.456430  6.027480
N    -1.481488  2.005670  6.637100
H    -3.533378  -0.034184  3.769488
H    -3.775562  1.650657  3.368924
H    -3.538590  2.292273  6.067367
H    0.561187  1.390205  6.494569
H    -1.489267  2.403681  7.573147
N    -2.174199  2.849278  1.018986
C    -3.593614  2.999296  0.690579
H    -1.567161  3.633242  0.774935
H    -4.092746  2.027979  0.633038
H    -3.676157  3.485088  -0.287293
H    -4.098757  3.624847  1.437875
Ca    0.949643  0.630152  3.135655
