30
Energy: -38164.0396411 eV PBE+vdW (tier 2 basis)
C    -0.289681  0.515758  0.043611
C    -0.137132  0.529709  1.529519
O    0.969454  0.885463  2.053892
H    0.518304  -0.072161  -0.409863
H    -0.175400  1.546786  -0.322456
H    -1.256107  0.126248  -0.292387
N    -1.183351  0.175468  2.280845
C    -1.370178  0.322364  3.741258
C    -0.658195  -0.829780  4.491897
O    0.601429  -0.992928  4.259488
H    -2.015354  -0.119455  1.773019
H    -0.848763  1.244091  4.048732
C    -2.897386  0.508058  3.938847
C    -3.410714  0.756267  5.320067
N    -3.387122  -0.246366  6.270568
C    -4.064953  1.853747  5.831438
C    -4.003282  0.230628  7.340935
N    -4.429241  1.497605  7.108386
H    -3.405908  -0.382163  3.529004
H    -3.188290  1.356530  3.304670
H    -4.319656  2.816260  5.405182
H    -4.164721  -0.293732  8.275984
H    -4.949581  2.076657  7.760708
N    -1.301798  -1.578859  5.343754
C    -0.659429  -2.661702  6.087656
H    -2.264235  -1.239150  5.720175
H    -1.438649  -3.219178  6.614550
H    0.054961  -2.264787  6.821640
H    -0.129830  -3.335028  5.405029
Ca    2.274809  -0.054348  3.430852
