30
Energy: -38163.8269135 eV PBE+vdW (tier 2 basis)
C    -0.010715  -0.652212  0.453988
C    -0.250022  -0.380286  1.899626
O    0.721105  0.015532  2.647088
H    0.411076  0.246212  -0.016942
H    -0.923585  -0.948148  -0.071426
H    0.740034  -1.448025  0.351093
N    -1.466687  -0.548308  2.396839
C    -1.823845  -0.143535  3.764081
C    -1.060151  -0.987619  4.800954
O    -0.100939  -0.428609  5.443280
H    -2.324844  -0.623483  1.749760
H    -1.454531  0.883193  3.919120
C    -3.364288  -0.121208  3.968620
C    -4.114635  0.407269  2.785624
N    -3.884016  -0.127321  1.525838
C    -5.134299  1.327154  2.714964
C    -4.744996  0.462441  0.708994
N    -5.518836  1.340225  1.394336
H    -3.574499  0.488192  4.856380
H    -3.731665  -1.129966  4.194858
H    -5.619532  1.939027  3.465254
H    -4.842598  0.284850  -0.356057
H    -6.269545  1.900214  1.001477
N    -1.334657  -2.259306  5.038970
C    -2.278096  -3.172870  4.385299
H    -0.770918  -2.666064  5.787052
H    -1.796473  -4.153806  4.306802
H    -2.525164  -2.828196  3.378793
H    -3.191588  -3.280403  4.983522
Ca    1.593906  0.460056  4.496814
