30
Energy: -38163.3974427 eV PBE+vdW (tier 2 basis)
C    0.103156  -0.345962  0.101245
C    -0.004390  -0.188481  1.577554
O    1.052200  -0.160042  2.307389
H    0.730819  0.456934  -0.308551
H    -0.869534  -0.334956  -0.400948
H    0.609515  -1.295775  -0.122261
N    -1.195707  -0.082548  2.157460
C    -1.354539  -0.021580  3.614182
C    -2.678535  -0.570161  4.203139
O    -2.566002  -1.231532  5.229249
H    -2.018428  -0.111879  1.560290
H    -0.629749  -0.737479  4.022340
C    -1.031039  1.393480  4.198416
C    -0.381840  1.308054  5.539868
N    0.928155  0.837986  5.708079
C    -0.904211  1.595572  6.772998
C    1.164014  0.857471  7.029560
N    0.083169  1.307549  7.686327
H    -1.947724  1.990689  4.276616
H    -0.381526  1.935086  3.493548
H    -1.878013  1.963835  7.070688
H    2.083642  0.568824  7.527409
H    0.009269  1.414428  8.695317
N    -3.873330  -0.256440  3.642686
C    -4.185637  0.583352  2.492469
H    -4.657581  -0.687839  4.128375
H    -5.200514  0.977155  2.610282
H    -4.169721  0.024020  1.541740
H    -3.518499  1.452434  2.426587
Ca    2.269750  0.059082  3.988752
