30
Energy: -38164.8656647 eV PBE+vdW (tier 2 basis)
C    -1.158001  -0.447160  -0.579063
C    -0.764899  -0.370512  0.860340
O    0.319991  -0.882221  1.258848
H    -2.108440  0.047762  -0.803080
H    -1.228154  -1.505889  -0.865998
H    -0.364615  -0.003097  -1.194609
N    -1.608158  0.241026  1.713311
C    -1.504999  0.335813  3.180218
C    -0.443407  1.370758  3.589217
O    0.757189  1.256996  3.208920
H    -2.455898  0.622036  1.303244
H    -2.479263  0.726580  3.487705
C    -1.344007  -1.079628  3.859555
C    -0.312290  -1.276531  4.926209
N    1.058441  -1.375349  4.668259
C    -0.527059  -1.533959  6.259029
C    1.635144  -1.685007  5.830985
N    0.708447  -1.786909  6.804695
H    -1.168257  -1.814137  3.063457
H    -2.319105  -1.337916  4.288170
H    -1.437654  -1.590394  6.843189
H    2.694152  -1.846161  6.001949
H    0.893521  -2.035334  7.773038
N    -0.804792  2.395488  4.353010
C    -2.130818  2.735932  4.882349
H    -0.042313  3.036585  4.572409
H    -2.831239  2.988505  4.076481
H    -2.019603  3.617493  5.519597
H    -2.536887  1.924438  5.497392
Ca    1.927974  -0.500211  2.650177
