30
Energy: -38164.2488291 eV PBE+vdW (tier 2 basis)
C    -1.764104  -2.832751  2.047175
C    -0.735771  -2.071243  1.290013
O    0.189212  -2.635774  0.648825
H    -2.139240  -3.674248  1.453692
H    -2.589784  -2.217844  2.417366
H    -1.252756  -3.268049  2.922127
N    -0.763325  -0.697697  1.253153
C    -1.944007  0.149489  1.082300
C    -2.838334  -0.454091  -0.030154
O    -2.316322  -1.178770  -0.925848
H    0.133232  -0.259291  1.044758
H    -2.515601  0.219680  2.020145
C    -1.459314  1.569869  0.717813
C    -0.693560  1.769510  -0.570354
N    0.078681  0.815573  -1.246200
C    -0.533022  2.983915  -1.194765
C    0.683513  1.473471  -2.244685
N    0.334890  2.772005  -2.236850
H    -0.841309  1.912034  1.564701
H    -2.330012  2.238568  0.707364
H    -0.941147  3.963262  -0.975092
H    1.369476  1.051028  -2.971950
H    0.667081  3.479139  -2.888207
N    -4.127885  -0.160571  0.001018
C    -5.119325  -0.584953  -0.990439
H    -4.465262  0.403251  0.778507
H    -5.936751  -1.111299  -0.484352
H    -4.641414  -1.252671  -1.710392
H    -5.524314  0.291755  -1.510108
Ca    -0.171972  -1.572493  -1.311016
