30
Energy: -38164.1770336 eV PBE+vdW (tier 2 basis)
C    -0.669564  -0.087155  -0.623001
C    -0.569321  0.029413  0.858108
O    0.498543  0.412649  1.418198
H    -1.661830  -0.395648  -0.967716
H    0.078479  -0.810357  -0.976370
H    -0.411037  0.880570  -1.073864
N    -1.656052  -0.280892  1.616154
C    -1.529762  -0.135201  3.056689
C    -0.901198  -1.376092  3.721859
O    0.319220  -1.288496  4.062214
H    -2.513424  -0.583056  1.162785
H    -0.742838  0.613161  3.082294
C    -2.577006  0.633428  3.870806
C    -1.832116  1.432528  4.924421
N    -0.457628  1.713157  4.856355
C    -2.357914  2.059758  6.025818
C    -0.198319  2.504256  5.903159
N    -1.315378  2.728457  6.620096
H    -3.336482  -0.002190  4.341530
H    -3.106190  1.319527  3.191168
H    -3.366905  2.098124  6.417947
H    0.765973  2.923653  6.169897
H    -1.376595  3.300852  7.458431
N    -1.580257  -2.495580  3.914469
C    -2.958727  -2.815728  3.551532
H    -1.036706  -3.245185  4.346494
H    -2.969619  -3.635534  2.822536
H    -3.460953  -1.948128  3.116682
H    -3.513795  -3.129199  4.443889
Ca    1.330401  0.584907  3.509419
