30
Energy: -38163.9143121 eV PBE+vdW (tier 2 basis)
C    0.797294  1.000084  0.515824
C    0.144580  0.752803  1.837670
O    0.288842  1.597371  2.782490
H    1.886885  1.005416  0.667559
H    0.526273  1.996584  0.144523
H    0.549917  0.250947  -0.243161
N    -0.572421  -0.364888  1.987996
C    -1.128900  -1.000072  3.195755
C    -2.272779  -0.223198  3.885801
O    -2.347487  1.059628  3.845666
H    -0.625151  -0.948272  1.157009
H    -1.585126  -1.921263  2.813065
C    -0.043444  -1.440758  4.226564
C    -0.363112  -2.794508  4.798199
N    -1.670976  -3.223196  4.947430
C    0.493088  -3.781427  5.228602
C    -1.608284  -4.443741  5.463088
N    -0.317688  -4.810160  5.648500
H    0.051335  -0.684381  5.022551
H    0.928858  -1.480098  3.719221
H    1.573407  -3.843900  5.269994
H    -2.452154  -5.080020  5.704597
H    -0.001547  -5.700786  6.020617
N    -3.114512  -0.967917  4.554361
C    -4.238634  -0.472206  5.338865
H    -2.809212  -1.991640  4.669763
H    -4.472467  0.559382  5.064366
H    -4.003282  -0.527177  6.410324
H    -5.110418  -1.106506  5.143309
Ca    -1.105884  2.737898  3.886450
