30
Energy: -38164.2635427 eV PBE+vdW (tier 2 basis)
C    -0.139193  1.016793  0.083967
C    -0.148334  0.696901  1.540989
O    0.890433  0.908141  2.252010
H    0.049471  2.093170  -0.036883
H    -1.076279  0.759643  -0.419856
H    0.692814  0.491528  -0.403066
N    -1.258446  0.200388  2.089461
C    -1.482615  -0.041229  3.522259
C    -0.714028  -1.298256  4.000100
O    0.507507  -1.123853  4.379299
H    -2.062675  0.024784  1.485095
H    -1.010448  0.789426  4.068078
C    -2.998579  0.023394  3.826312
C    -3.883047  -0.809029  2.950292
N    -3.702323  -2.176985  2.839324
C    -5.000413  -0.438877  2.233371
C    -4.689027  -2.628076  2.079955
N    -5.494175  -1.605311  1.698038
H    -3.303769  1.075177  3.746299
H    -3.136147  -0.255022  4.882292
H    -5.492884  0.515965  2.093840
H    -4.854529  -3.659704  1.789739
H    -6.331625  -1.690491  1.129226
N    -1.296846  -2.465465  4.008659
C    -0.655472  -3.696689  4.461909
H    -2.287859  -2.528393  3.584475
H    -0.142697  -4.192680  3.626323
H    -1.430645  -4.368192  4.843862
H    0.068966  -3.482713  5.253311
Ca    2.074865  0.166654  3.847320
