30
Energy: -38163.8731712 eV PBE+vdW (tier 2 basis)
C    0.046322  0.147813  -0.045480
C    -0.014471  0.003414  1.437853
O    1.075150  -0.001523  2.122402
H    0.667488  -0.651517  -0.471012
H    0.541463  1.099022  -0.286815
H    -0.944319  0.128848  -0.509343
N    -1.197913  -0.107532  2.021252
C    -1.424365  -0.103094  3.472494
C    -1.031357  -1.468976  4.085012
O    0.191817  -1.590754  4.455094
H    -2.117198  -0.088706  1.465456
H    -0.674941  0.566538  3.921243
C    -2.801905  0.529327  3.807806
C    -3.952742  0.251976  2.882270
N    -3.756885  0.014315  1.531195
C    -5.302816  0.287186  3.147112
C    -4.962604  -0.094612  0.989070
N    -5.917795  0.067861  1.935612
H    -2.621637  1.615860  3.818101
H    -3.071081  0.269654  4.840899
H    -5.864852  0.460773  4.056607
H    -5.180042  -0.283098  -0.056128
H    -6.920572  0.049774  1.774746
N    -1.837626  -2.501737  4.243586
C    -3.241953  -2.692054  3.871772
H    -1.384663  -3.297187  4.695937
H    -3.461308  -2.207132  2.917577
H    -3.908370  -2.299690  4.648990
H    -3.413473  -3.767970  3.771733
Ca    2.061645  -0.825780  3.767959
