11
Energy: -561137.476521 eV PBE+vdW (tier 2 basis)
N    0.157524  0.548592  0.242035
C    0.121576  -0.200691  1.547393
C    1.525306  -0.361025  2.160649
O    1.553794  -0.990666  3.269235
H    0.729767  0.068126  -0.471627
H    -0.800549  0.638029  -0.138427
H    -0.516423  0.344499  2.256136
H    -0.308785  -1.196870  1.377148
O    2.519567  0.112934  1.567172
H    0.538797  1.503199  0.346849
Hg    3.769802  -0.800500  3.462931
