27
Energy: -103697.747122 eV PBE+vdW (tier 2 basis)
N    1.275095  1.019038  2.149564
C    0.213303  -0.033636  1.918874
C    0.858254  -1.202761  1.129923
O    2.096487  -1.458607  1.440578
H    1.273718  1.635173  1.326577
H    0.955232  1.632009  2.906668
H    -0.017666  -0.452763  2.912854
C    -1.069401  0.541824  1.289921
C    -2.424501  -0.063809  1.705105
C    -2.789890  -1.469028  1.209813
N    -2.267756  -2.535316  2.088174
C    -1.928998  -3.809657  1.726721
N    -1.840551  -4.905566  2.354787
N    -1.430089  -3.922597  0.312642
H    -0.971725  0.517950  0.194219
H    -1.122026  1.605062  1.570437
H    -3.196673  0.614267  1.315229
H    -2.536985  -0.022237  2.801096
H    -2.397829  -1.607707  0.195819
H    -3.885988  -1.553799  1.153248
H    -2.637850  -2.496382  3.035949
H    -2.184240  -4.887348  3.318272
H    -1.049814  -4.877002  0.245447
H    -2.179243  -3.822489  -0.384467
O    0.205824  -1.823005  0.290293
H    -0.678477  -3.196055  0.135182
Sr    3.599041  -0.141486  2.354937
