27
Energy: -103698.538251 eV PBE+vdW (tier 2 basis)
N    -0.385563  0.490420  0.741873
C    0.415009  0.513617  1.935330
C    1.745618  1.265789  1.877592
O    2.201570  1.909766  2.851674
H    0.029005  -0.046355  -0.019017
H    -0.652358  1.409946  0.396201
H    -0.154908  1.042087  2.717130
C    0.701952  -0.939694  2.412691
C    -0.547310  -1.670071  2.937626
C    -0.803565  -1.568811  4.445599
N    -1.069608  -0.198526  4.924403
C    -0.167094  0.633302  5.451436
N    1.079978  0.397314  5.788953
N    -0.525302  2.016345  5.593065
H    1.502860  -0.945291  3.167662
H    1.106274  -1.482657  1.546073
H    -0.446759  -2.743190  2.721709
H    -1.429976  -1.335747  2.372906
H    0.038170  -1.980509  5.019140
H    -1.677855  -2.173253  4.717707
H    -2.029748  0.127113  4.848966
H    1.331175  -0.591620  5.813129
H    -0.687482  2.249822  6.577455
H    -1.355444  2.290182  5.063688
O    2.383124  1.185176  0.735196
H    3.232382  1.675293  0.760296
Sr    2.128142  2.478122  5.127681
