27
Energy: -103697.883796 eV PBE+vdW (tier 2 basis)
N    -0.568513  -0.101777  0.259566
C    -0.024726  -0.805877  1.426368
C    0.339755  0.008073  2.482635
O    0.280257  1.307433  2.465213
H    -0.634128  -0.736861  -0.538073
H    -1.517789  0.251542  0.427567
H    -1.028997  -0.885673  4.548710
C    -0.080425  -2.319956  1.475329
C    -0.908479  -2.975399  2.605497
C    -2.421531  -2.755715  2.634931
N    -2.945844  -1.372938  2.822449
C    -3.004861  -0.705964  3.997348
N    -1.990949  -0.756243  4.866621
N    -4.092058  0.026903  4.279616
H    0.934604  -2.747993  1.536826
H    -0.465258  -2.683106  0.509784
H    -0.484304  -2.751194  3.594315
H    -0.784562  -4.064661  2.505469
H    -2.847963  -3.393801  3.422637
H    -2.859170  -3.089214  1.685276
H    -3.698487  -1.133114  2.184468
H    -2.110564  -0.382695  5.802104
H    -4.079373  0.724891  5.015446
H    -4.989697  -0.172433  3.852642
O    0.805273  -0.516777  3.676231
H    1.168851  -1.409411  3.538681
Sr    1.342337  1.531695  0.512958
