27
Energy: -103697.599458 eV PBE+vdW (tier 2 basis)
N    0.355798  0.631423  0.168532
C    0.132745  -0.315394  1.322029
C    1.220281  -1.424819  1.290558
O    2.355290  -1.074418  0.761684
H    -0.078293  0.217961  -0.666068
H    -0.202216  1.474387  0.341163
H    0.348116  0.268935  2.232954
C    -1.298526  -0.857038  1.434838
C    -1.660022  -1.969185  0.422644
C    -2.144336  -3.257461  1.128883
N    -1.947632  -4.483206  0.358123
C    -0.764078  -5.134425  0.186406
N    -0.428888  -5.772815  -0.847944
N    0.110481  -5.067706  1.449330
H    -1.998249  -0.012357  1.364338
H    -1.413602  -1.236365  2.460088
H    -0.785272  -2.231775  -0.192756
H    -2.432060  -1.628587  -0.279545
H    -3.213184  -3.191337  1.366889
H    -1.630571  -3.353801  2.094801
H    -2.567304  -4.628257  -0.437104
H    0.395050  -6.372200  -0.793086
H    0.890834  -5.724498  1.341065
H    -0.421087  -5.339619  2.287979
O    0.987354  -2.530312  1.783235
H    0.510729  -4.094961  1.599965
Sr    2.921644  0.826746  -0.201588
