27
Energy: -103698.02989 eV PBE+vdW (tier 2 basis)
N    0.474823  -0.767517  0.232690
C    0.015051  0.010490  1.366671
C    1.255060  0.477937  2.135556
O    2.389041  0.056466  1.868449
H    -4.246574  0.542359  -0.066419
H    -0.305774  -0.949793  -0.398862
H    -0.495887  0.952897  1.061010
C    -0.943197  -0.727265  2.360514
C    -2.438971  -0.738692  2.004141
C    -2.837792  -1.584346  0.782557
N    -4.269637  -1.918712  0.756871
C    -5.244841  -1.245775  0.131762
N    -5.022505  -0.025715  -0.378392
N    -6.454763  -1.805925  -0.007322
H    -0.872682  -0.275682  3.363068
H    -0.569630  -1.757122  2.466019
H    -2.802008  0.296086  1.887293
H    -2.975871  -1.142259  2.875597
H    -2.298091  -2.540724  0.792984
H    -2.588703  -1.097350  -0.170362
H    -4.557576  -2.727397  1.299182
H    -5.693573  0.407581  -1.001500
H    -7.266931  -1.252753  -0.254567
H    -6.600682  -2.797279  0.141932
O    1.149708  1.359357  3.116806
H    0.230215  1.660521  3.242330
Sr    2.684958  -1.240145  -0.085699
