27
Energy: -103697.913314 eV PBE+vdW (tier 2 basis)
N    -0.877996  0.393391  -0.112174
C    -0.785074  0.354798  1.354418
C    0.555200  -0.320635  1.678075
O    0.845783  -0.748057  2.803224
H    -1.438149  -0.371063  -0.490316
H    -1.268930  1.267393  -0.462530
H    -1.580133  -0.241113  1.826947
C    -0.831254  1.797783  1.927988
C    -0.377493  1.965105  3.390371
C    1.124482  2.299153  3.518790
N    1.671562  1.918890  4.832249
C    2.432031  0.863170  5.122794
N    2.738435  0.411857  6.326670
N    3.017283  0.067883  4.070582
H    -1.870997  2.136967  1.832651
H    -0.233216  2.451482  1.271810
H    -0.595516  1.049919  3.956648
H    -0.959423  2.771419  3.855482
H    1.296817  3.375609  3.387683
H    1.715963  1.794944  2.747337
H    1.306411  2.441122  5.627920
H    2.309507  0.910995  7.107801
H    2.232821  -0.361073  3.469771
H    3.564287  0.652277  3.430111
O    1.391716  -0.343154  0.666557
H    0.791007  0.007155  -0.098032
Sr    4.049287  -1.486034  5.791336
