27
Energy: -103699.451387 eV PBE+vdW (tier 2 basis)
N    0.944690  -1.722175  0.466399
C    0.151721  -0.464160  0.132285
C    0.828865  0.674765  0.917318
O    0.456686  1.854136  0.686699
H    1.561891  -2.010761  -0.302698
H    1.540003  -1.440834  1.284307
H    0.248496  -0.280731  -0.944384
C    -1.332562  -0.572546  0.517342
C    -1.604298  -0.798091  2.022526
C    -2.746707  0.056244  2.603377
N    -2.533973  1.505447  2.486630
C    -1.533964  2.188109  3.076511
N    -0.647198  1.746363  3.933823
N    -1.292364  3.519158  2.646417
H    -1.809149  -1.351700  -0.094181
H    -1.771895  0.378171  0.184894
H    -0.692181  -0.617281  2.610748
H    -1.876368  -1.845332  2.214405
H    -2.912777  -0.217252  3.656338
H    -3.686502  -0.157622  2.080340
H    -3.253140  2.040358  2.010646
H    -0.884548  0.852758  4.365628
H    -1.470619  4.197757  3.389310
H    -1.773633  3.796034  1.790859
O    1.667146  0.347862  1.824072
H    0.351741  -2.523230  0.714148
Sr    1.348710  2.666080  2.808751
