27
Energy: -103696.947013 eV PBE+vdW (tier 2 basis)
N    0.313845  0.085751  0.334439
C    0.757026  -0.342385  1.729550
C    2.263226  -0.083751  1.805251
O    2.911955  0.057793  0.705649
H    1.145946  0.018976  -0.284545
H    -0.433627  -0.524457  -0.024595
H    0.237347  0.293060  2.457254
C    0.397735  -1.831989  1.936324
C    0.610401  -2.383235  3.351383
C    -0.325174  -1.777278  4.419663
N    -0.291601  -2.487409  5.687082
C    -0.590044  -3.857202  5.777060
N    0.009296  -4.720986  6.512913
N    -1.622906  -4.261636  4.934050
H    0.959814  -2.433810  1.204438
H    -0.672105  -1.938810  1.684838
H    1.658689  -2.279786  3.665555
H    0.402364  -3.461260  3.297508
H    -1.355191  -1.764701  4.029180
H    -0.062931  -0.730633  4.636141
H    0.445467  -2.202372  6.323408
H    0.814838  -4.337997  7.014712
H    -1.851487  -5.240398  5.094666
H    -2.454242  -3.675167  4.958271
O    2.836076  -0.052899  2.934976
H    -0.025361  1.056443  0.303919
Sr    4.977827  0.247706  1.952816
