27
Energy: -103698.293402 eV PBE+vdW (tier 2 basis)
N    0.330478  -0.887351  0.239573
C    -0.082862  -0.461731  1.609463
C    1.183514  0.137993  2.235565
O    1.718345  1.056990  1.605617
H    1.103864  -1.557655  0.292223
H    -0.440178  -1.394748  -0.203125
H    -0.674597  0.455215  1.486588
C    -1.045321  -1.393538  2.353209
C    -2.408926  -1.444902  1.623143
C    -3.394255  -0.259588  1.773517
N    -2.884260  1.124729  1.629833
C    -2.216230  1.661937  0.587269
N    -1.920751  1.127119  -0.571753
N    -1.547477  2.895013  0.819983
H    -1.193869  -1.025360  3.381410
H    -0.635461  -2.411944  2.426194
H    -2.967401  -2.313383  1.998852
H    -2.255820  -1.674890  0.556901
H    -3.825011  -0.283950  2.781567
H    -4.231664  -0.418622  1.077797
H    -3.202692  1.769966  2.347335
H    -2.502349  0.324858  -0.818614
H    -1.855979  3.621365  0.169866
H    -1.587980  3.250380  1.775673
O    1.678929  -0.252449  3.386777
H    1.188918  -0.999959  3.782675
Sr    0.568836  1.602257  -0.560718
