27
Energy: -103698.590357 eV PBE+vdW (tier 2 basis)
N    -0.008491  0.447479  0.476281
C    -0.123899  -0.098260  1.856370
C    1.302691  -0.339467  2.365620
O    2.207602  -0.637022  1.575519
H    -0.865797  0.234383  -0.045306
H    0.027671  1.469981  0.528893
H    -0.653131  0.610147  2.514474
C    -0.837903  -1.477946  1.891999
C    -2.239478  -1.531590  1.244347
C    -2.494416  -2.819221  0.417082
N    -1.341497  -3.247577  -0.393746
C    -0.656779  -2.445377  -1.242517
N    0.641635  -2.548997  -1.506803
N    -1.333059  -1.381696  -1.799357
H    -0.894289  -1.801704  2.939917
H    -0.170636  -2.197223  1.395152
H    -2.413673  -0.653679  0.605517
H    -3.019150  -1.471107  2.014446
H    -3.388111  -2.692332  -0.211410
H    -2.716985  -3.664181  1.078491
H    -0.807335  -4.021251  -0.011648
H    1.008004  -3.452837  -1.190796
H    -0.980266  -1.118788  -2.716231
H    -2.348994  -1.436127  -1.792652
O    1.571441  -0.302901  3.651058
H    0.812404  -0.022595  4.199641
Sr    2.060873  -0.651118  -0.824493
