27
Energy: -103698.555059 eV PBE+vdW (tier 2 basis)
N    -1.621535  -0.017197  0.181002
C    -0.373166  -0.400308  0.859335
C    0.756057  -0.597015  -0.139682
O    0.672489  -0.426497  -1.369441
H    -2.365586  0.010987  0.882139
H    -1.554707  0.941965  -0.168456
H    0.002208  0.417494  1.505360
C    -0.587064  -1.604636  1.818229
C    -0.677326  -3.044946  1.288322
C    -1.738498  -3.407481  0.222072
N    -1.142337  -3.564719  -1.113380
C    -1.250765  -2.794983  -2.201883
N    -0.608834  -2.954471  -3.343813
N    -2.030570  -1.601812  -2.165985
H    -1.495857  -1.365131  2.391800
H    0.227759  -1.584771  2.553429
H    -0.867473  -3.668859  2.172235
H    0.309432  -3.371947  0.925110
H    -2.551970  -2.676544  0.165931
H    -2.203254  -4.368744  0.475517
H    -0.507830  -4.356305  -1.203195
H    -0.117613  -3.845200  -3.445578
H    -2.948969  -1.745456  -2.592098
H    -2.097809  -1.139682  -1.226313
O    1.886326  -0.931336  0.452323
H    2.623297  -0.980193  -0.190994
Sr    -0.159273  -0.600898  -3.633232
