27
Energy: -103698.415361 eV PBE+vdW (tier 2 basis)
N    0.219574  -0.303191  0.066582
C    0.220196  -1.009070  1.369608
C    1.456976  -1.574086  1.611964
O    2.463367  -1.357846  0.736589
H    1.221874  -0.403910  -0.235035
H    -0.387423  -0.739780  -0.645175
H    -0.456492  2.166895  4.218278
C    -1.083537  -1.354138  2.013907
C    -1.636557  -0.401455  3.097882
C    -0.795804  -0.435635  4.380765
N    -1.457847  0.192140  5.534309
C    -1.355906  1.465502  5.927021
N    -0.705620  2.367272  5.176805
N    -1.893972  1.851421  7.094717
H    -0.981069  -2.354888  2.462019
H    -1.863186  -1.464092  1.240606
H    -2.663223  -0.713203  3.343899
H    -1.714412  0.628293  2.711246
H    0.191405  0.026481  4.240835
H    -0.597061  -1.477115  4.666784
H    -2.124755  -0.382809  6.039628
H    -0.462397  3.277813  5.546180
H    -2.029688  2.830454  7.315223
H    -2.218940  1.176413  7.775958
O    1.729106  -2.343709  2.646963
H    -0.023762  0.694696  0.105285
Sr    3.788947  -2.832719  1.841380
