27
Energy: -103697.484436 eV PBE+vdW (tier 2 basis)
N    0.506743  -0.861963  -0.202735
C    -0.054217  -0.096821  0.906562
C    1.063854  0.268229  1.871123
O    2.231695  0.506612  1.432572
H    -0.189599  -0.979039  -0.940318
H    1.297097  -0.371177  -0.622374
H    -0.432196  0.911402  0.614072
C    -1.253676  -0.821869  1.553771
C    -1.106359  -2.341534  1.770238
C    0.185432  -2.812558  2.421639
N    0.378638  -2.169440  3.797267
C    1.664171  -2.423519  4.521034
N    1.787504  -2.832275  5.697491
N    2.800084  -2.015129  3.766607
H    -2.124015  -0.675289  0.899985
H    -1.518794  -0.304352  2.486860
H    -1.136374  -2.863469  0.803739
H    -1.977459  -2.710438  2.332756
H    1.032043  -2.512954  1.787642
H    0.210456  -3.899257  2.565656
H    -0.393864  -2.454645  4.412879
H    0.939087  -3.061458  6.221707
H    3.615419  -2.466204  4.195383
H    2.753597  -2.309692  2.785992
O    0.837681  0.356079  3.155151
H    0.323481  -1.104817  3.647732
Sr    3.156696  0.789790  3.567280
