27
Energy: -103696.923386 eV PBE+vdW (tier 2 basis)
N    0.239836  0.856337  0.619021
C    0.314008  -0.085027  1.741811
C    1.813499  -0.289234  1.966623
O    2.480462  0.314441  2.762265
H    -0.733649  1.036767  0.370284
H    0.653001  1.755610  0.870298
H    -0.057163  0.321894  2.701874
C    -0.502385  -1.335437  1.380766
C    -0.700245  -2.392192  2.477491
C    0.559609  -3.142420  2.936210
N    1.333042  -3.683352  1.804217
C    1.235467  -4.893396  1.296691
N    0.494296  -5.918631  1.682249
N    2.071333  -5.236233  0.143445
H    -0.092961  -1.777005  0.459130
H    -1.505077  -0.976780  1.104356
H    -1.440503  -3.124027  2.119735
H    -1.139859  -1.933182  3.375470
H    0.307804  -3.958003  3.627311
H    1.246969  -2.481376  3.480446
H    1.897578  -2.957866  1.323610
H    -0.135612  -5.718463  2.460904
H    1.778485  -4.692214  -0.677055
H    3.047680  -4.968989  0.310388
O    2.411568  -1.213805  1.094719
H    3.371943  -1.061910  1.213590
Sr    1.214692  -7.710038  0.326841
