27
Energy: -103698.45087 eV PBE+vdW (tier 2 basis)
N    -0.002345  -0.095736  -0.109721
C    0.122179  -0.771751  1.198304
C    0.535834  0.040281  2.209935
O    0.802571  1.330065  2.078049
H    0.544678  -0.625318  -0.802492
H    -0.968248  -0.198544  -0.448997
H    0.042256  -1.689377  4.959241
C    -0.123677  -2.259697  1.142520
C    -0.195392  -3.076334  2.439916
C    -1.470399  -2.813233  3.252945
N    -1.560635  -3.632180  4.466222
C    -1.016950  -3.319056  5.649071
N    -0.253573  -2.227303  5.773728
N    -1.248704  -4.098611  6.717352
H    0.662636  -2.719285  0.515281
H    -1.061071  -2.431865  0.579636
H    0.698728  -2.903701  3.053118
H    -0.175931  -4.140257  2.163245
H    -2.359531  -3.047843  2.652831
H    -1.563495  -1.757285  3.541038
H    -1.971651  -4.555442  4.376980
H    0.014399  -1.890810  6.689694
H    -0.725773  -3.985696  7.576600
H    -1.953841  -4.824753  6.699944
O    0.714502  -0.425195  3.497950
H    1.095130  0.335721  3.974472
Sr    0.783540  2.354183  0.154741
