27
Energy: -103696.800924 eV PBE+vdW (tier 2 basis)
N    0.486026  0.789826  -0.014447
C    0.155569  0.723985  1.394545
C    1.257641  0.076914  2.251975
O    1.901100  -0.892544  1.933572
H    0.829764  -0.108013  -0.360076
H    1.197832  1.492548  -0.209430
H    0.010350  1.753768  1.752020
C    -1.156698  -0.082276  1.549002
C    -1.648530  -0.327553  2.982326
C    -1.966889  0.965975  3.740423
N    -2.429178  0.714626  5.123236
C    -3.667565  0.507760  5.547173
N    -4.082350  0.260465  6.775888
N    -4.774084  0.540031  4.599891
H    -1.005249  -1.062355  1.073561
H    -1.921599  0.437229  0.953516
H    -0.903332  -0.901350  3.554124
H    -2.549156  -0.964138  2.936575
H    -2.719295  1.570678  3.215028
H    -1.071079  1.590473  3.839823
H    -1.690569  0.632057  5.821388
H    -3.350777  0.258589  7.489765
H    -4.572296  -0.048174  3.783142
H    -4.892254  1.488950  4.224753
O    1.413534  0.723190  3.452003
H    2.162603  0.285357  3.906643
Sr    -6.405692  -0.166400  6.560047
