27
Energy: -103697.506587 eV PBE+vdW (tier 2 basis)
N    0.170886  0.323280  0.448591
C    -0.593566  0.263654  1.773478
C    0.770674  0.830815  1.667486
O    1.062341  2.118395  1.861029
H    -0.125791  1.118230  -0.125733
H    0.070595  -2.829933  -2.512428
H    -1.362768  1.031328  1.904173
C    -0.947737  -1.113018  2.280548
C    -2.299869  -1.642224  1.763664
C    -2.504504  -1.526978  0.246995
N    -1.414539  -2.095034  -0.554716
C    -1.412781  -3.283231  -1.162063
N    -0.444713  -3.569563  -2.052223
N    -2.348405  -4.205879  -0.897095
H    -0.982767  -1.090390  3.379567
H    -0.146353  -1.821818  2.018755
H    -3.122584  -1.087190  2.238360
H    -2.412620  -2.687614  2.087702
H    -2.587148  -0.473063  -0.049886
H    -3.450697  -1.993009  -0.057249
H    -0.569003  -1.518852  -0.600477
H    -0.325601  -4.508855  -2.411282
H    -2.973386  -4.114033  -0.107114
H    -2.493862  -4.996917  -1.512570
O    1.950781  0.059656  2.132881
H    1.994230  -0.804053  1.690744
Sr    3.043327  2.157456  2.764918
