27
Energy: -103697.6678 eV PBE+vdW (tier 2 basis)
N    -0.097501  0.670444  1.311109
C    0.267365  -0.464438  2.249700
C    1.713943  -0.784087  2.017990
O    2.234219  -1.820447  2.548458
H    -0.683763  1.375065  1.775507
H    0.795305  1.107601  1.007605
H    0.223779  -0.026023  3.318468
C    -0.708248  -1.642526  2.185623
C    -2.210586  -1.338312  2.360055
C    -2.681359  -0.567108  3.618031
N    -2.122847  -1.025257  4.875771
C    -0.904162  -0.606179  5.347179
N    -0.264616  0.474101  4.938201
N    -0.284515  -1.428440  6.238658
H    -0.375652  -2.338250  2.967214
H    -0.581013  -2.181370  1.232770
H    -2.714852  -2.314956  2.334113
H    -2.608410  -0.800778  1.481910
H    -3.773736  -0.649218  3.679513
H    -2.486492  0.510655  3.514580
H    -2.618739  -1.758377  5.371005
H    -0.936910  1.154713  4.572068
H    0.394313  -0.995285  6.853148
H    -0.733085  -2.270942  6.576429
O    2.442858  0.059964  1.356896
H    -0.598801  0.341776  0.474401
Sr    4.385271  -1.171160  1.929663
