27
Energy: -103697.767351 eV PBE+vdW (tier 2 basis)
N    0.247321  1.154410  0.879116
C    0.147749  0.088275  1.942646
C    1.551102  -0.554030  2.134142
O    2.553907  0.238760  1.905211
H    0.099207  0.696459  -0.029016
H    -0.563478  1.775072  0.970890
H    -0.059181  0.624678  2.884670
C    -0.974020  -0.935032  1.668306
C    -1.765455  -1.482057  2.875064
C    -1.034271  -2.168638  4.026946
N    -0.163623  -3.331542  3.587891
C    -0.800870  -4.373966  2.681048
N    -0.368531  -4.615501  1.519448
N    -1.906213  -4.933883  3.240165
H    -0.566647  -1.760733  1.067956
H    -1.726790  -0.450589  1.028944
H    -2.527500  -2.168514  2.479630
H    -2.329546  -0.659324  3.341127
H    -1.764522  -2.537456  4.756082
H    -0.350240  -1.490818  4.554966
H    0.238980  -3.791435  4.416548
H    0.447250  -4.074824  1.230773
H    -2.316240  -5.700522  2.713202
H    -2.015503  -4.995177  4.245911
O    1.670895  -1.724853  2.499592
H    0.637831  -2.872918  3.064909
Sr    2.664817  2.178848  0.892670
