27
Energy: -103696.423132 eV PBE+vdW (tier 2 basis)
N    -0.826192  -0.485025  0.253319
C    -0.105303  0.572229  1.037293
C    1.213674  0.882878  0.324652
O    1.434577  0.476940  -0.831943
H    -0.637349  -1.383672  0.718048
H    -1.832204  -0.343594  0.391377
H    -0.694836  1.501537  0.943257
C    0.051372  0.243550  2.535825
C    0.865589  -1.020745  2.834041
C    1.133251  -1.200134  4.335087
N    1.866356  -2.437446  4.560470
C    2.112362  -2.900248  5.869802
N    3.322627  -3.243331  6.135492
N    1.010784  -2.909514  6.702484
H    -0.958151  0.169097  2.967532
H    0.495754  1.114600  3.049542
H    1.833797  -0.987452  2.303488
H    0.345400  -1.927863  2.481474
H    0.181146  -1.236356  4.881155
H    1.679264  -0.313257  4.715406
H    2.767104  -2.465055  4.080559
H    3.438015  -3.656988  7.064550
H    1.159461  -3.296416  7.628220
H    0.114671  -3.165018  6.298923
O    2.119092  1.632254  0.894439
H    1.881342  1.896382  1.806863
Sr    0.032751  -0.698525  -2.240481
