27
Energy: -103698.142441 eV PBE+vdW (tier 2 basis)
N    1.693620  -0.331971  0.946046
C    0.807750  0.176502  1.969936
C    1.679415  0.540582  3.171311
O    2.818979  0.078890  3.316871
H    -5.146386  -4.164543  3.187967
H    1.168470  -0.443200  0.076512
H    0.287639  1.113142  1.667173
C    -0.303879  -0.852641  2.382723
C    -1.383745  -0.365272  3.359601
C    -2.510951  -1.369203  3.628912
N    -3.399701  -1.525182  2.467440
C    -4.335378  -2.478970  2.339447
N    -4.547073  -3.359078  3.325097
N    -5.045716  -2.569989  1.205340
H    0.195559  -1.748002  2.783279
H    -0.762760  -1.160777  1.431007
H    -1.830427  0.583135  3.011483
H    -0.944723  -0.151336  4.345190
H    -3.094391  -1.024804  4.498128
H    -2.081870  -2.353580  3.869946
H    -3.462480  -0.738726  1.828150
H    -4.203016  -3.196722  4.262925
H    -5.879528  -3.142706  1.149816
H    -4.791301  -2.047173  0.376729
O    1.232644  1.373405  4.103288
H    0.374486  1.761892  3.850304
Sr    3.888841  -0.741527  1.343907
