27
Energy: -103697.095878 eV PBE+vdW (tier 2 basis)
N    -1.856510  -0.625450  2.162692
C    -0.464453  -0.762503  2.691421
C    0.447328  0.130018  1.869114
O    0.139011  0.459331  0.704564
H    -2.428558  -1.463246  2.500296
H    -2.296351  0.145455  2.681468
H    -0.444218  -0.459300  3.750477
C    0.074516  -2.230792  2.561041
C    0.764237  -2.832415  3.798841
C    -0.101892  -2.997237  5.073120
N    -1.449050  -3.510549  4.808919
C    -2.467780  -2.656636  4.430822
N    -3.274962  -2.798663  3.413478
N    -2.559785  -1.483228  5.165022
H    0.776956  -2.296440  1.716340
H    -0.785315  -2.857001  2.285542
H    1.672236  -2.265344  4.063098
H    1.132489  -3.822290  3.489936
H    -0.194597  -2.045106  5.607916
H    0.414460  -3.679382  5.760398
H    -1.473468  -4.409587  4.333893
H    -3.111803  -3.685114  2.927134
H    -3.475871  -1.052121  5.068409
H    -2.283071  -1.555944  6.140953
O    1.611304  0.517280  2.326253
H    1.771700  0.247473  3.252444
Sr    -1.889936  -0.023366  -0.303713
