27
Energy: -103697.191303 eV PBE+vdW (tier 2 basis)
N    0.046525  -0.397493  0.322726
C    -0.059801  -0.294261  1.776747
C    1.345544  -0.304363  2.387344
O    2.262375  -0.985459  1.954636
H    -0.865181  -0.230123  -0.105493
H    0.679417  0.309057  -0.055391
H    -0.571319  0.629509  2.113493
C    -0.884694  -1.484467  2.347344
C    -0.209214  -2.871937  2.338304
C    0.206775  -3.353652  0.948957
N    0.964023  -4.648851  0.992027
C    2.315107  -4.665240  1.519433
N    2.668968  -5.886129  1.893820
N    3.015010  -3.550238  1.596665
H    -1.824344  -1.522310  1.775378
H    -1.171720  -1.252187  3.382266
H    -0.926164  -3.588440  2.780895
H    0.664172  -2.849330  3.009373
H    0.773572  -2.575575  0.418975
H    -0.678763  -3.549260  0.329674
H    1.042923  -4.983945  0.023886
H    3.648288  -5.986383  2.167493
H    2.624565  -2.599316  1.435708
H    3.932409  -3.564055  2.036133
O    1.547624  0.429708  3.485677
H    0.778090  0.995898  3.684951
Sr    0.573257  -6.867539  2.308784
