27
Energy: -103697.697356 eV PBE+vdW (tier 2 basis)
N    1.593682  -0.963971  1.400331
C    0.437960  -0.428357  2.155945
C    0.758768  -0.406026  3.653623
O    1.353822  -1.314350  4.220890
H    1.362329  -0.912038  0.403783
H    2.392183  -0.332965  1.520432
H    0.216382  0.605414  1.835727
C    -0.851256  -1.251368  1.894431
C    -1.071910  -2.612092  2.586369
C    -0.110123  -3.760999  2.260157
N    1.076925  -3.802936  3.195555
C    2.286609  -4.316639  2.593858
N    2.636090  -5.505060  3.045034
N    2.885516  -3.533185  1.711521
H    -0.928246  -1.382112  0.803393
H    -1.705245  -0.615390  2.167278
H    -2.074600  -2.939735  2.277161
H    -1.139863  -2.483645  3.679032
H    0.237582  -3.693297  1.219532
H    -0.645080  -4.721984  2.339674
H    1.260995  -2.815431  3.523075
H    3.483920  -5.899323  2.633432
H    2.465447  -2.585286  1.537012
H    3.753052  -3.805021  1.257831
O    0.310064  0.618365  4.374369
H    -0.093683  1.313616  3.820893
Sr    1.149838  -5.680147  4.876406
