32
Energy: -35247.684285 eV PBE+vdW (tier 2 basis)
C    0.161691  -0.044947  -0.071542
C    -0.005968  0.045254  1.405860
O    0.932342  0.507856  2.137386
H    0.311936  0.970009  -0.468131
H    -0.695610  -0.501095  -0.576734
H    1.070143  -0.615264  -0.306322
N    -1.156664  -0.348834  1.959617
C    -1.522268  -0.146081  3.372251
C    -0.733388  -1.123873  4.271039
O    0.365003  -0.695377  4.777522
H    -1.895897  -0.661428  1.333468
H    -1.123031  0.838555  3.661612
C    -3.047541  -0.092024  3.569106
C    -3.690484  1.291074  3.299261
C    -3.194958  2.365346  4.274038
C    -3.578855  1.752669  1.840561
H    -3.261945  -0.369955  4.611657
H    -3.535680  -0.853486  2.941826
H    -4.759800  1.130463  3.509453
H    -3.778187  3.286581  4.154568
H    -2.144049  2.646790  4.092864
H    -3.291908  2.049373  5.321709
H    -4.195375  2.645113  1.677708
H    -3.935153  0.988322  1.133996
H    -2.549952  2.032636  1.565862
N    -1.116007  -2.359080  4.536128
C    -2.275156  -3.122130  4.060685
H    -0.493844  -2.850616  5.179981
H    -3.150446  -2.943736  4.696876
H    -2.016236  -4.184186  4.108638
H    -2.511083  -2.872836  3.023059
Ca    1.922286  0.531171  4.006036
