32
Energy: -35247.8265241 eV PBE+vdW (tier 2 basis)
C    2.225939  -0.341236  0.872182
C    1.304338  0.541484  1.643753
O    1.217679  1.784225  1.360164
H    1.910735  -0.335951  -0.181550
H    2.239360  -1.374062  1.234658
H    3.243850  0.069070  0.900862
N    0.567859  0.010394  2.620947
C    -0.525734  0.675369  3.358385
C    0.044877  1.630124  4.427104
O    0.524005  2.755876  4.052721
H    0.691128  -0.982529  2.815081
H    -1.010600  1.352388  2.636340
C    -1.610688  -0.340611  3.779943
C    -1.356453  -1.469728  4.812104
C    -2.600257  -2.371853  4.835297
C    -0.086934  -2.300811  4.577224
H    -1.939083  -0.814824  2.840878
H    -2.475012  0.250633  4.117303
H    -1.293701  -1.040230  5.832234
H    -2.512170  -3.131521  5.621129
H    -2.720955  -2.895407  3.876220
H    -3.516811  -1.798725  5.025448
H    0.846083  -1.732822  4.721719
H    -0.087203  -2.759242  3.573860
H    -0.042082  -3.135708  5.287405
N    0.019685  1.296270  5.697950
C    0.510712  2.137321  6.793306
H    -0.390377  0.390426  5.928560
H    0.089332  3.145269  6.711841
H    1.605664  2.198952  6.766600
H    0.198579  1.687816  7.739234
Ca    1.140234  3.692645  2.245098
