32
Energy: -35247.799111 eV PBE+vdW (tier 2 basis)
C    -0.687104  1.026897  0.253577
C    -0.743956  0.481054  1.640849
O    0.275181  -0.081757  2.148236
H    -1.615558  1.510627  -0.066307
H    -0.454604  0.203857  -0.437368
H    0.140539  1.745249  0.181042
N    -1.896009  0.592369  2.323910
C    -2.214232  0.028298  3.657512
C    -1.453447  0.826647  4.729734
O    -0.202463  0.671946  4.899146
H    -2.659624  1.052271  1.835351
H    -3.277621  0.243638  3.800016
C    -2.057404  -1.524742  3.639468
C    -1.883892  -2.332777  4.948496
C    -0.421937  -2.471983  5.414110
C    -2.804892  -1.887319  6.090514
H    -1.250199  -1.796818  2.944400
H    -2.971499  -1.880417  3.144462
H    -2.192503  -3.351336  4.666472
H    -0.319095  -3.252124  6.179646
H    -0.041733  -1.551945  5.895633
H    0.227931  -2.821685  4.581617
H    -3.848754  -1.825704  5.755143
H    -2.516422  -0.912935  6.511351
H    -2.776229  -2.607496  6.917332
N    -2.105072  1.712254  5.468164
C    -3.535834  2.043205  5.471600
H    -1.515913  2.215344  6.132740
H    -3.845147  2.489114  4.518644
H    -3.705138  2.781129  6.260448
H    -4.145477  1.159540  5.695971
Ca    1.277107  -0.561398  3.969091
