32
Energy: -35247.1974578 eV PBE+vdW (tier 2 basis)
C    -0.220136  -0.739393  0.009162
C    -0.192146  -0.125799  1.365827
O    0.914743  0.222697  1.899429
H    0.017947  0.009118  -0.761882
H    -1.174098  -1.217138  -0.230524
H    0.582974  -1.488662  -0.033205
N    -1.334271  0.084866  2.055765
C    -2.523307  0.701869  1.465000
C    -2.123930  2.143378  1.043607
O    -0.989540  2.633639  1.388021
H    -1.191877  0.316571  3.040967
H    -2.802987  0.148035  0.557091
C    -3.686144  0.634304  2.483101
C    -5.083568  1.085864  2.013744
C    -5.533113  0.392615  0.720357
C    -6.087498  0.827392  3.147672
H    -3.403588  1.207156  3.382278
H    -3.744615  -0.423072  2.786026
H    -5.068157  2.178869  1.854622
H    -6.552524  0.697442  0.455088
H    -5.539581  -0.700833  0.836572
H    -4.903432  0.614719  -0.159875
H    -7.080340  1.204564  2.875331
H    -5.787003  1.325006  4.079188
H    -6.184365  -0.248078  3.352171
N    -2.974083  2.842483  0.323548
C    -2.764072  4.222276  -0.127473
H    -3.856763  2.393410  0.081599
H    -3.683912  4.570971  -0.603477
H    -1.945521  4.266337  -0.856173
H    -2.531325  4.869343  0.725602
Ca    1.019390  2.363247  2.093077
