32
Energy: -35247.8509686 eV PBE+vdW (tier 2 basis)
C    -0.170743  1.132525  0.421584
C    -0.452883  0.608051  1.788055
O    0.409362  0.739695  2.719899
H    0.775806  0.715149  0.053752
H    -0.032925  2.221740  0.489052
H    -0.967041  0.918523  -0.298467
N    -1.624325  0.011842  2.028644
C    -2.136460  -0.397871  3.353601
C    -1.434567  -1.702178  3.789201
O    -0.284765  -1.620548  4.343770
H    -2.276672  -0.058340  1.249784
H    -1.799348  0.364043  4.073031
C    -3.674142  -0.390824  3.338304
C    -4.366692  -0.260657  4.717253
C    -4.166066  -1.463709  5.646274
C    -4.006792  1.056204  5.417556
H    -4.068438  -1.266471  2.792908
H    -3.972671  0.481269  2.735875
H    -5.439548  -0.214942  4.472640
H    -4.781368  -1.348448  6.546917
H    -3.124735  -1.562050  5.992234
H    -4.467292  -2.410905  5.176106
H    -4.645406  1.204842  6.296691
H    -4.147005  1.926171  4.761584
H    -2.968707  1.066195  5.787795
N    -2.013418  -2.859672  3.556447
C    -1.490629  -4.177561  3.915294
H    -2.949772  -2.828302  3.157353
H    -0.485178  -4.071726  4.326685
H    -1.465054  -4.814717  3.023561
H    -2.148023  -4.636727  4.664348
Ca    1.310497  -0.214604  4.370270
