32
Energy: -35247.1268696 eV PBE+vdW (tier 2 basis)
C    0.559762  0.406726  0.818337
C    0.117142  0.182220  2.223137
O    0.971186  0.044182  3.163253
H    0.880100  1.450785  0.675083
H    -0.214554  0.167697  0.083081
H    1.445230  -0.216870  0.637662
N    -1.194620  0.142347  2.535334
C    -2.170643  1.113849  2.042281
C    -1.727269  2.505559  2.563097
O    -0.814203  2.589899  3.463765
H    -1.402328  -0.218769  3.467666
H    -2.141442  1.130293  0.941953
C    -3.596296  0.742297  2.512909
C    -4.342054  -0.266616  1.614790
C    -3.623287  -1.613149  1.473310
C    -5.765572  -0.451048  2.154669
H    -4.197368  1.658802  2.583927
H    -3.531041  0.359370  3.547138
H    -4.417004  0.191488  0.611576
H    -4.225219  -2.297955  0.863547
H    -3.479793  -2.095603  2.452124
H    -2.643072  -1.533517  0.982777
H    -6.344153  -1.106054  1.492135
H    -6.304815  0.502919  2.230215
H    -5.757551  -0.916687  3.150831
N    -2.279124  3.605677  2.089645
C    -3.305963  3.753537  1.053266
H    -1.955799  4.470048  2.526912
H    -3.031022  4.597870  0.411909
H    -4.281302  3.959644  1.512486
H    -3.378665  2.853221  0.437964
Ca    0.855337  1.728416  4.502232
