32
Energy: -35245.9023959 eV PBE+vdW (tier 2 basis)
C    0.579128  0.527532  0.854056
C    -0.231667  -0.445238  1.635028
O    0.159958  -1.710673  1.650644
H    1.604335  0.552008  1.250023
H    0.164088  1.538550  0.880940
H    0.640648  0.198946  -0.192772
N    -1.296190  -0.135784  2.308320
C    -2.012499  1.142848  2.474978
C    -2.783552  0.834831  3.796580
O    -3.106000  -0.355970  3.967949
H    -1.859487  -0.840468  2.856096
H    -1.294515  1.965036  2.571766
C    -2.944624  1.322893  1.240153
C    -3.628938  2.682834  0.984381
C    -4.813494  2.985346  1.907899
C    -2.634575  3.845131  0.886936
H    -3.704284  0.527735  1.283424
H    -2.315769  1.106177  0.361731
H    -4.053749  2.547886  -0.024988
H    -5.376356  3.845920  1.525327
H    -4.506091  3.237384  2.928684
H    -5.509044  2.137434  1.964369
H    -3.136254  4.748471  0.518549
H    -1.813115  3.625784  0.188806
H    -2.193442  4.112435  1.858430
N    -3.057419  1.792360  4.687204
C    -2.620251  3.181791  4.751355
H    -3.594461  1.448139  5.482723
H    -1.991997  3.334254  5.638242
H    -3.485605  3.853035  4.813258
H    -2.044521  3.451901  3.863461
Ca    0.723030  -3.604253  1.679535
