32
Energy: -35247.0685256 eV PBE+vdW (tier 2 basis)
C    0.222952  1.518182  0.139607
C    0.100211  0.694185  1.373206
O    1.140824  0.286887  1.991054
H    0.653447  2.504165  0.369854
H    -0.722425  1.644217  -0.394761
H    0.946517  1.017531  -0.520472
N    -1.113010  0.369621  1.872076
C    -2.193868  1.345725  2.061259
C    -1.622973  2.470457  2.962611
O    -0.571233  2.265887  3.668049
H    -1.088606  -0.358881  2.588559
H    -2.467738  1.783528  1.090677
C    -3.413721  0.583990  2.640573
C    -4.787508  1.291743  2.750551
C    -5.003101  2.071050  4.055550
C    -5.159369  2.099310  1.501160
H    -3.136921  0.175621  3.627090
H    -3.529256  -0.275814  1.963104
H    -5.495208  0.448130  2.788272
H    -6.054851  2.370439  4.143090
H    -4.409714  2.992380  4.127032
H    -4.769466  1.454623  4.934196
H    -6.210179  2.409654  1.546521
H    -5.030879  1.520165  0.576076
H    -4.579988  3.033898  1.386966
N    -2.227579  3.637277  2.966176
C    -1.860425  4.779432  3.808252
H    -3.065911  3.723819  2.391724
H    -2.501929  5.622930  3.541212
H    -0.814319  5.057280  3.637610
H    -2.006266  4.534907  4.867670
Ca    1.284193  1.218512  3.928264
