32
Energy: -35247.7416801 eV PBE+vdW (tier 2 basis)
C    -1.036063  0.853326  0.034532
C    -0.809467  0.421890  1.444829
O    0.353809  0.071822  1.821707
H    -2.066826  1.159154  -0.171060
H    -0.769310  0.020624  -0.632188
H    -0.356183  1.681780  -0.205543
N    -1.854456  0.411919  2.284469
C    -1.930333  -0.094413  3.678136
C    -1.150393  0.831249  4.622801
O    0.125229  0.789525  4.641201
H    -2.739264  0.708109  1.880530
H    -2.993106  -0.028492  3.931997
C    -1.542086  -1.585664  3.787744
C    -1.853627  -2.302682  5.120969
C    -0.885716  -1.951136  6.256761
C    -3.318385  -2.144906  5.549586
H    -0.473394  -1.734554  3.546831
H    -2.087032  -2.089548  2.975932
H    -1.699606  -3.368394  4.887602
H    -1.033110  -2.628174  7.106970
H    -1.024723  -0.930787  6.640928
H    0.167448  -2.061444  5.947565
H    -4.015389  -2.394964  4.737990
H    -3.545945  -1.126588  5.900207
H    -3.542915  -2.817198  6.386295
N    -1.777965  1.674575  5.424521
C    -3.209492  1.928423  5.609366
H    -1.151362  2.211244  6.027678
H    -3.595532  1.349450  6.458132
H    -3.778300  1.685937  4.708281
H    -3.342993  2.994700  5.819924
Ca    1.668488  -0.067784  3.467306
