32
Energy: -35247.2604304 eV PBE+vdW (tier 2 basis)
C    0.331674  0.103458  0.164183
C    0.081608  0.338780  1.612372
O    0.963554  0.905894  2.345071
H    0.496723  1.071990  -0.329602
H    -0.492663  -0.416229  -0.334422
H    1.256728  -0.476034  0.041255
N    -1.079861  -0.037041  2.158108
C    -1.413221  0.293187  3.549541
C    -0.471433  -0.449487  4.526521
O    0.318513  0.299033  5.214113
H    -1.799199  -0.452819  1.568343
H    -1.069300  1.330279  3.683778
C    -2.932059  0.429972  3.842546
C    -3.998667  -0.676043  3.683723
C    -4.037373  -1.337648  2.297987
C    -4.061325  -1.671269  4.847485
H    -3.229425  1.272708  3.197687
H    -2.989188  0.821143  4.870069
H    -4.931380  -0.091118  3.751117
H    -4.949137  -1.937597  2.187721
H    -3.205949  -2.036643  2.111835
H    -4.059219  -0.591542  1.487791
H    -3.185400  -2.324957  4.918334
H    -4.935631  -2.325407  4.740122
H    -4.164478  -1.148304  5.807410
N    -0.359247  -1.758979  4.654520
C    -0.945900  -2.858609  3.893724
H    0.321192  -2.035015  5.365521
H    -1.409116  -3.575517  4.581122
H    -0.150786  -3.370306  3.335426
H    -1.701760  -2.494039  3.200159
Ca    1.755289  1.529264  4.224494
