32
Energy: -35247.1643235 eV PBE+vdW (tier 2 basis)
C    -2.093184  -1.398447  0.474071
C    -1.073472  -1.131239  1.527440
O    0.085039  -1.669429  1.465313
H    -1.888872  -0.799109  -0.427069
H    -3.115407  -1.196900  0.808931
H    -2.003515  -2.450994  0.175310
N    -1.344192  -0.306142  2.558066
C    -1.999388  0.989618  2.402287
C    -1.004824  1.895885  1.609677
O    0.149566  1.457537  1.270837
H    -0.679811  -0.352500  3.332576
H    -2.896480  0.862762  1.775385
C    -2.410398  1.584467  3.764233
C    -3.702112  1.010593  4.385509
C    -3.636023  -0.491445  4.686283
C    -4.032148  1.810091  5.652722
H    -2.543962  2.669585  3.643846
H    -1.564719  1.474159  4.466950
H    -4.513701  1.181643  3.655501
H    -4.554507  -0.811942  5.193074
H    -2.798709  -0.729967  5.359970
H    -3.540823  -1.111471  3.784670
H    -4.986180  1.475893  6.077837
H    -4.119316  2.886230  5.450675
H    -3.261919  1.670349  6.425082
N    -1.387153  3.113385  1.287039
C    -0.571468  4.084945  0.548659
H    -2.314057  3.411046  1.583982
H    -1.162514  4.993529  0.409686
H    -0.295598  3.682159  -0.432713
H    0.335254  4.328327  1.114824
Ca    1.563624  -0.156110  1.093651
