32
Energy: -35247.1780376 eV PBE+vdW (tier 2 basis)
C    -3.062053  3.522400  -0.846119
C    -1.955201  3.019914  0.015132
O    -0.972171  3.777977  0.317096
H    -3.688808  4.242058  -0.297965
H    -3.693425  2.725425  -1.248957
H    -2.607390  4.080688  -1.676517
N    -1.965491  1.756494  0.494059
C    -3.139791  1.154564  1.122606
C    -3.346662  1.886028  2.482968
O    -2.582116  2.858051  2.823876
H    -1.074101  1.454436  0.892298
H    -4.017006  1.391999  0.500830
C    -3.000649  -0.388215  1.242843
C    -4.171634  -1.196013  0.645000
C    -3.826238  -2.689267  0.676256
C    -5.509425  -0.928157  1.346216
H    -2.848062  -0.675041  2.295046
H    -2.080600  -0.672827  0.712671
H    -4.272885  -0.890334  -0.411256
H    -2.893223  -2.901164  0.138051
H    -4.621105  -3.279800  0.204862
H    -3.712508  -3.052690  1.707983
H    -5.854869  0.116018  1.248656
H    -5.468820  -1.210380  2.412858
H    -6.308157  -1.536577  0.904198
N    -4.325847  1.484047  3.261050
C    -4.658341  2.063862  4.566186
H    -4.894593  0.702330  2.926973
H    -5.554130  1.564650  4.943900
H    -4.859440  3.136748  4.467669
H    -3.835264  1.908520  5.274046
Ca    -0.988878  4.234642  2.418526
