32
Energy: -35247.1864913 eV PBE+vdW (tier 2 basis)
C    -1.307336  -1.336850  0.000827
C    -0.418127  -0.647072  0.977082
O    0.822160  -0.944631  1.050227
H    -1.091719  -1.007631  -1.026886
H    -2.371233  -1.195789  0.212020
H    -1.068473  -2.409068  0.036683
N    -0.903088  0.304164  1.804697
C    -1.759129  1.394613  1.343527
C    -0.864905  2.337980  0.488366
O    0.361122  2.040116  0.254620
H    -0.270281  0.557539  2.566179
H    -2.508434  0.966743  0.659003
C    -2.489816  2.095387  2.523481
C    -4.023635  2.207253  2.367466
C    -4.450687  3.134753  1.223130
C    -4.696814  0.834814  2.263923
H    -2.054618  3.090436  2.696746
H    -2.279638  1.504901  3.426616
H    -4.361886  2.674369  3.305867
H    -5.538983  3.273688  1.219972
H    -4.210711  2.716374  0.228490
H    -4.016529  4.143669  1.321068
H    -5.788565  0.939816  2.276626
H    -4.418372  0.178767  3.099145
H    -4.451577  0.314428  1.322948
N    -1.403022  3.434984  0.005490
C    -0.705157  4.421609  -0.824987
H    -2.385247  3.610469  0.230709
H    -1.420418  5.198294  -1.106943
H    -0.312444  3.948487  -1.732410
H    0.118642  4.878803  -0.263985
Ca    2.034561  0.707994  0.397292
