32
Energy: -35247.0669208 eV PBE+vdW (tier 2 basis)
C    -0.912647  -0.717961  -0.895343
C    0.079385  -0.365943  0.160482
O    1.029895  -1.174039  0.439096
H    -1.159088  0.141191  -1.527722
H    -1.851506  -1.072724  -0.440222
H    -0.506392  -1.529689  -1.506706
N    0.005421  0.789563  0.860852
C    -1.219939  1.316927  1.484350
C    -1.709598  0.248461  2.500236
O    -1.007893  -0.798325  2.740805
H    0.852489  0.974970  1.398796
H    -0.874486  2.172515  2.086547
C    -2.290845  1.863450  0.509864
C    -3.187708  3.008148  1.043499
C    -2.388373  4.185222  1.610471
C    -4.118641  3.457853  -0.091501
H    -2.926065  1.049175  0.134500
H    -1.737759  2.264158  -0.352620
H    -3.854207  2.626276  1.844741
H    -1.809183  3.934586  2.512843
H    -3.064663  4.998610  1.899936
H    -1.693690  4.590180  0.860639
H    -3.541533  3.899414  -0.916323
H    -4.821770  4.219841  0.264766
H    -4.706867  2.623329  -0.495890
N    -2.842807  0.463004  3.131072
C    -3.416962  -0.411254  4.158708
H    -3.359061  1.306500  2.873772
H    -2.702900  -0.554496  4.977712
H    -3.683010  -1.384639  3.729382
H    -4.319242  0.066011  4.549104
Ca    0.678310  -2.068575  2.359734
