32
Energy: -35247.4701868 eV PBE+vdW (tier 2 basis)
C    -0.452603  1.048833  0.007284
C    -0.392123  0.661617  1.443967
O    0.652748  0.903290  2.139131
H    -0.327030  2.138422  -0.070853
H    -1.391742  0.761349  -0.476011
H    0.389358  0.593117  -0.531106
N    -1.444688  0.064679  2.011003
C    -1.524334  -0.219687  3.451158
C    -0.528695  -1.337306  3.851810
O    0.532271  -0.948990  4.466507
H    -2.283145  -0.088837  1.451644
H    -1.073214  0.654329  3.944845
C    -2.963365  -0.242118  4.020209
C    -4.093350  -1.165468  3.518433
C    -5.338087  -0.869516  4.371175
C    -4.430608  -1.001832  2.027935
H    -3.313622  0.798942  3.919221
H    -2.841920  -0.398451  5.103224
H    -3.819051  -2.212521  3.710288
H    -6.158936  -1.543786  4.098474
H    -5.690656  0.160678  4.219350
H    -5.138942  -1.004820  5.442246
H    -5.349602  -1.547913  1.781229
H    -3.666469  -1.408443  1.342182
H    -4.614204  0.052788  1.769095
N    -0.663317  -2.624256  3.593693
C    -1.651952  -3.360383  2.807023
H    0.093835  -3.191097  3.981198
H    -2.289342  -3.962618  3.465256
H    -1.115375  -4.032490  2.126843
H    -2.268501  -2.680599  2.219304
Ca    1.882975  0.573396  3.835215
