32
Energy: -35247.872787 eV PBE+vdW (tier 2 basis)
C    -3.543573  0.461554  -0.855111
C    -2.588854  -0.191689  0.084809
O    -1.342519  -0.236938  -0.189882
H    -4.588173  0.377929  -0.538656
H    -3.429608  0.034023  -1.859605
H    -3.278685  1.526828  -0.930876
N    -3.053828  -0.708991  1.223933
C    -2.251219  -1.205934  2.359420
C    -1.705127  -2.612490  2.022611
O    -0.685114  -2.711631  1.258842
H    -4.052614  -0.614543  1.397002
H    -1.359838  -0.561382  2.435726
C    -3.045901  -1.106367  3.670986
C    -3.138553  0.299019  4.312664
C    -3.861227  1.344884  3.453575
C    -3.809560  0.165769  5.685974
H    -2.554158  -1.760889  4.406325
H    -4.065997  -1.508102  3.522116
H    -2.102038  0.643862  4.475070
H    -4.879838  1.018414  3.189051
H    -3.320712  1.601150  2.531770
H    -3.970214  2.279590  4.017096
H    -3.818788  1.132390  6.203607
H    -3.284216  -0.549987  6.332364
H    -4.854001  -0.165026  5.589972
N    -2.302509  -3.672433  2.525351
C    -1.918133  -5.067828  2.306541
H    -3.093580  -3.502539  3.144597
H    -1.779240  -5.558737  3.276736
H    -0.986497  -5.104009  1.738664
H    -2.711792  -5.586218  1.754322
Ca    0.348107  -1.491678  -0.144994
