32
Energy: -35247.0906897 eV PBE+vdW (tier 2 basis)
C    0.266128  0.279781  0.162430
C    0.030792  0.164619  1.627282
O    1.012205  0.105739  2.441942
H    0.783338  1.219336  -0.080069
H    -0.644632  0.189496  -0.435296
H    0.958458  -0.528263  -0.119672
N    -1.224058  0.123622  2.128452
C    -2.280166  1.067784  1.746156
C    -1.747008  2.494415  2.053837
O    -0.741079  2.651865  2.833575
H    -1.274326  -0.171709  3.105444
H    -2.462337  0.996131  0.663755
C    -3.575527  0.673795  2.494196
C    -4.844443  1.517015  2.216426
C    -6.076010  0.600690  2.168737
C    -5.045110  2.630945  3.254252
H    -3.374475  0.665158  3.579064
H    -3.755791  -0.370428  2.199826
H    -4.753366  1.968762  1.208609
H    -5.994867  -0.149374  1.371281
H    -6.986821  1.184483  1.988409
H    -6.206897  0.071796  3.123480
H    -4.164754  3.275409  3.388860
H    -5.280598  2.196016  4.235953
H    -5.887754  3.276394  2.977270
N    -2.346891  3.512405  1.474489
C    -2.062436  4.931836  1.686393
H    -3.153123  3.291841  0.889881
H    -1.965424  5.428686  0.714581
H    -1.135938  5.040411  2.253051
H    -2.888963  5.392547  2.242992
Ca    1.057469  1.857462  3.694638
