32
Energy: -35246.4693899 eV PBE+vdW (tier 2 basis)
C    -0.659611  -1.302487  -1.525313
C    -0.913392  -0.148629  -0.620978
O    -0.185792  0.931635  -0.740088
H    -0.779646  -0.986199  -2.570908
H    -1.334435  -2.140302  -1.324792
H    0.379059  -1.640812  -1.403627
N    -1.850147  -0.202839  0.285809
C    -2.224648  0.805279  1.272300
C    -3.161073  -0.019868  2.221420
O    -3.535996  -1.127858  1.826128
H    -2.450197  -1.050817  0.452249
H    -1.322335  1.119829  1.821934
C    -2.956188  2.022452  0.638395
C    -2.619236  3.396673  1.245040
C    -1.203032  3.873851  0.867954
C    -3.652517  4.449229  0.825771
H    -4.039106  1.856720  0.715005
H    -2.746582  2.046385  -0.443583
H    -2.636682  3.324358  2.346052
H    -0.942278  4.829357  1.340662
H    -1.189035  4.059023  -0.233426
H    -0.442671  3.133845  1.205570
H    -3.418950  5.435328  1.246233
H    -4.652775  4.168298  1.177180
H    -3.703664  4.548512  -0.268742
N    -3.520655  0.551463  3.377211
C    -4.425205  -0.085249  4.338426
H    -3.100906  1.436211  3.640829
H    -5.175938  0.639114  4.672418
H    -3.865943  -0.457091  5.205880
H    -4.921150  -0.924804  3.844708
Ca    0.698549  2.724760  -0.850161
