32
Energy: -35247.213968 eV PBE+vdW (tier 2 basis)
C    0.369986  1.268463  0.002152
C    0.173929  0.403101  1.195828
O    1.167317  0.004753  1.888273
H    0.835351  2.223423  0.284138
H    -0.547091  1.450452  -0.564423
H    1.095607  0.759231  -0.650779
N    -1.065582  0.019846  1.587041
C    -2.214580  0.921520  1.675901
C    -1.811002  2.140146  2.547277
O    -0.778971  2.086580  3.296337
H    -1.077669  -0.751051  2.255169
H    -2.477978  1.278746  0.669650
C    -3.436536  0.179675  2.274490
C    -3.471318  -0.072957  3.798539
C    -4.809389  -0.741134  4.152840
C    -2.317469  -0.924908  4.354779
H    -3.534379  -0.769360  1.723564
H    -4.331608  0.760015  2.010081
H    -3.442903  0.905004  4.310555
H    -4.891085  -1.737037  3.695231
H    -5.659254  -0.141142  3.803331
H    -4.912841  -0.861863  5.237975
H    -2.490797  -1.174242  5.408979
H    -1.343334  -0.386111  4.336268
H    -2.194037  -1.877001  3.815597
N    -2.573409  3.213894  2.504899
C    -2.366438  4.421516  3.313440
H    -3.379259  3.198693  1.883409
H    -3.066281  5.188179  2.971779
H    -1.341219  4.786768  3.189205
H    -2.552653  4.208379  4.373158
Ca    0.901088  0.849705  3.864861
