32
Energy: -35246.465741 eV PBE+vdW (tier 2 basis)
C    0.698522  -0.409119  0.152146
C    0.467701  -0.318300  1.621246
O    1.483091  -0.144518  2.414299
H    1.245202  0.475638  -0.200887
H    -0.233143  -0.510599  -0.412632
H    1.335827  -1.282309  -0.050779
N    -0.750016  -0.402953  2.098565
C    -1.215652  -0.567068  3.477214
C    -2.587452  -1.301353  3.241558
O    -3.071883  -1.233185  2.107744
H    -1.573399  -0.596402  1.474753
H    -0.518598  -1.225589  4.014221
C    -1.489795  0.744406  4.254483
C    -0.313290  1.563089  4.843821
C    0.662556  0.698769  5.672675
C    0.352832  2.524852  3.832503
H    -2.137684  0.474089  5.099461
H    -2.102348  1.398262  3.617133
H    -0.774127  2.237015  5.582329
H    1.486276  1.293966  6.116904
H    1.046540  -0.202097  5.146060
H    0.158482  0.262893  6.545570
H    1.187874  3.100630  4.285785
H    -0.353417  3.305390  3.520609
H    0.648904  2.064785  2.869441
N    -3.176198  -1.940957  4.262700
C    -2.704277  -2.147907  5.626135
H    -4.081542  -2.340178  4.018614
H    -3.040899  -3.131412  5.970948
H    -3.098896  -1.389138  6.317314
H    -1.609131  -2.146918  5.669177
Ca    2.544553  0.959564  3.752199
