32
Energy: -35247.6654995 eV PBE+vdW (tier 2 basis)
C    0.080005  0.175892  0.333216
C    0.068309  0.523593  1.785726
O    1.072998  1.091822  2.309812
H    -0.852037  -0.277820  -0.018532
H    0.910840  -0.518608  0.143261
H    0.284900  1.082552  -0.251902
N    -1.021038  0.210247  2.500203
C    -1.305243  0.384119  3.940885
C    -1.010884  1.807390  4.440314
O    0.152386  2.161193  4.818242
H    -1.751550  -0.270682  1.981740
H    -2.396363  0.291705  3.981970
C    -0.793963  -0.718470  4.929028
C    0.516667  -1.531979  4.795895
C    0.554431  -2.489776  3.596818
C    1.850749  -0.775306  4.921581
H    -1.592048  -1.473479  4.949587
H    -0.819547  -0.253830  5.927153
H    0.469713  -2.166694  5.696006
H    1.373192  -3.211970  3.708879
H    0.713356  -1.972609  2.641234
H    -0.375432  -3.067342  3.519801
H    2.649281  -1.448089  5.258794
H    1.796311  0.033245  5.676728
H    2.181774  -0.437625  3.918116
N    -2.013239  2.667441  4.542823
C    -3.428498  2.491580  4.190602
H    -1.751992  3.567869  4.946451
H    -3.922865  3.460444  4.303562
H    -3.919164  1.777976  4.864768
H    -3.541559  2.173118  3.148299
Ca    2.095362  1.871346  4.004203
