32
Energy: -35246.5767674 eV PBE+vdW (tier 2 basis)
C    0.501720  0.905340  0.587774
C    -0.058145  0.027500  1.652353
O    0.724251  -0.398592  2.601458
H    0.971264  1.789943  1.038537
H    -0.258008  1.224725  -0.131967
H    1.292212  0.356877  0.054994
N    -1.321935  -0.312821  1.627669
C    -2.058138  -1.276034  2.447000
C    -3.288969  -1.588774  1.512490
O    -3.497338  -0.814223  0.574708
H    -1.961310  -0.026517  0.843466
H    -1.449840  -2.184839  2.575807
C    -2.557955  -0.709739  3.794668
C    -1.546974  -0.475499  4.940194
C    -2.230130  0.208802  6.132958
C    -0.873523  -1.787095  5.402747
H    -3.330833  -1.392753  4.180614
H    -3.077408  0.237327  3.590183
H    -0.801598  0.266199  4.551901
H    -1.529343  0.398572  6.957406
H    -3.038978  -0.421429  6.526917
H    -2.667520  1.169708  5.836962
H    -0.180447  -1.649663  6.260772
H    -0.397923  -2.384958  4.595361
H    -1.628139  -2.472715  5.813391
N    -4.033144  -2.657384  1.818649
C    -5.222327  -3.052151  1.058367
H    -3.738496  -3.264350  2.576398
H    -6.075524  -3.168703  1.736068
H    -5.041466  -3.997950  0.533597
H    -5.440582  -2.269480  0.327538
Ca    1.338064  -0.688974  4.502348
