32
Energy: -35247.1867327 eV PBE+vdW (tier 2 basis)
C    -1.682154  2.038657  -0.574076
C    -0.945104  1.483800  0.594708
O    -0.251060  2.245604  1.349128
H    -2.518622  2.672432  -0.243247
H    -2.052487  1.269285  -1.257112
H    -0.992732  2.702267  -1.115730
N    -1.003239  0.166809  0.888000
C    -2.257881  -0.586934  0.942824
C    -3.141657  0.061924  2.033054
O    -2.625497  0.909528  2.851637
H    -0.310396  -0.140636  1.573477
H    -2.771641  -0.507211  -0.026141
C    -1.956332  -2.068799  1.244495
C    -1.213045  -2.801972  0.108840
C    -0.834004  -4.209670  0.587047
C    -2.040317  -2.852555  -1.180071
H    -2.901123  -2.590936  1.451894
H    -1.374812  -2.121430  2.181339
H    -0.278040  -2.253379  -0.101289
H    -0.259609  -4.734667  -0.185621
H    -1.728054  -4.812922  0.800465
H    -0.218238  -4.182557  1.496193
H    -1.499097  -3.402158  -1.959679
H    -2.255126  -1.857923  -1.600955
H    -2.996455  -3.373340  -1.021297
N    -4.419046  -0.247910  2.138519
C    -5.227291  -1.144987  1.306245
H    -4.902614  0.192268  2.922910
H    -6.197596  -0.669197  1.127180
H    -5.390052  -2.098378  1.824863
H    -4.743889  -1.332456  0.344191
Ca    -1.111083  2.350839  3.322260
