32
Energy: -35247.7466546 eV PBE+vdW (tier 2 basis)
C    -1.287728  0.890793  0.042115
C    -0.908592  0.485729  1.427069
O    0.303528  0.210662  1.699935
H    -2.349939  1.130668  -0.069402
H    -1.031498  0.070518  -0.643935
H    -0.685455  1.757618  -0.261330
N    -1.867236  0.416261  2.359322
C    -1.775282  -0.088576  3.752604
C    -0.960099  0.888707  4.615514
O    0.314027  0.892244  4.548817
H    -2.804877  0.647032  2.040773
H    -2.811564  -0.076417  4.107488
C    -1.287147  -1.550854  3.843251
C    -1.727873  -2.327824  5.105646
C    -1.111623  -1.795233  6.404213
C    -3.253646  -2.454708  5.205967
H    -0.184875  -1.603008  3.768847
H    -1.672663  -2.068394  2.953337
H    -1.330051  -3.343087  4.947012
H    -1.530636  -0.822225  6.701903
H    -0.018767  -1.689176  6.336235
H    -1.316548  -2.483502  7.233065
H    -3.697763  -2.844700  4.280274
H    -3.745243  -1.499054  5.446905
H    -3.521505  -3.147836  6.012673
N    -1.573106  1.734498  5.424771
C    -3.010338  1.881872  5.685825
H    -0.945290  2.326384  5.970412
H    -3.572434  2.013466  4.754848
H    -3.149563  2.780455  6.293057
H    -3.399163  1.021686  6.245860
Ca    1.789949  0.187002  3.191928
