32
Energy: -35247.7544049 eV PBE+vdW (tier 2 basis)
C    1.187081  -0.562176  -0.129284
C    0.593594  0.579347  0.625423
O    0.382680  1.694627  0.039975
H    1.343125  -1.452754  0.487754
H    2.142310  -0.255747  -0.575481
H    0.514590  -0.815700  -0.961686
N    0.280259  0.406818  1.910588
C    -0.491017  1.326550  2.765229
C    0.389022  2.504872  3.245918
O    0.667997  3.426443  2.401041
H    0.448343  -0.517594  2.309556
H    -1.217484  1.827767  2.104093
C    -1.333859  0.547706  3.807620
C    -0.790138  -0.650397  4.638374
C    -0.437628  -1.906807  3.818986
C    0.327751  -0.330957  5.637989
H    -2.200879  0.169297  3.246565
H    -1.752190  1.297234  4.497084
H    -1.672148  -0.924535  5.238521
H    0.589703  -1.888759  3.410049
H    -1.150315  -2.097049  3.004784
H    -0.452142  -2.791767  4.467480
H    0.529585  -1.202520  6.273867
H    0.048571  0.476716  6.336023
H    1.285852  -0.093374  5.146981
N    0.794234  2.573208  4.492902
C    1.586628  3.653319  5.080642
H    0.557187  1.787511  5.101943
H    1.594457  4.512369  4.406746
H    2.614659  3.310060  5.254086
H    1.140607  3.938632  6.039856
Ca    0.578561  3.772658  0.310375
