32
Energy: -35246.5088722 eV PBE+vdW (tier 2 basis)
C    0.184980  -0.120538  0.037352
C    0.027179  -0.156253  1.518248
O    1.090469  -0.108550  2.270039
H    0.733096  0.785532  -0.254991
H    -0.776200  -0.145360  -0.484865
H    0.788330  -0.982350  -0.281740
N    -1.166085  -0.233671  2.047687
C    -1.594540  -0.293819  3.444413
C    -3.160856  -0.319651  3.282212
O    -3.619823  -0.210817  2.141471
H    -2.045066  -0.222270  1.464075
H    -1.285764  -1.262885  3.873093
C    -1.060631  0.871771  4.313954
C    0.098743  0.488407  5.266804
C    1.084301  1.661149  5.451735
C    -0.390166  -0.028325  6.626697
H    -1.879492  1.279939  4.922409
H    -0.767830  1.690218  3.641690
H    0.600072  -0.402192  4.801733
H    0.606950  2.473043  6.018992
H    1.365972  2.177233  4.505378
H    1.979494  1.404457  6.051690
H    0.439314  -0.336907  7.275966
H    -1.047481  -0.899624  6.506107
H    -0.952368  0.755615  7.151738
N    -3.884626  -0.466151  4.397562
C    -5.348931  -0.527455  4.402596
H    -3.406996  -0.606808  5.281635
H    -5.748771  0.191551  5.126321
H    -5.687064  -1.537048  4.665935
H    -5.708574  -0.276749  3.401534
Ca    2.483970  0.206167  3.693798
