32
Energy: -35246.3126199 eV PBE+vdW (tier 2 basis)
C    -0.751345  0.994786  -0.220858
C    -1.103144  0.374596  1.085903
O    -0.513918  0.780681  2.167982
H    -0.812409  2.088593  -0.153156
H    -1.381659  0.637327  -1.040842
H    0.297276  0.748743  -0.447624
N    -2.009839  -0.576297  1.137273
C    -2.409316  -1.430866  2.254751
C    -3.578522  -2.268782  1.624078
O    -4.018021  -1.899575  0.531161
H    -2.598019  -0.821469  0.310858
H    -1.574782  -2.112759  2.481712
C    -2.788287  -0.705205  3.573339
C    -3.516865  0.656376  3.502097
C    -4.907784  0.558631  2.850845
C    -3.641019  1.280791  4.909383
H    -1.862141  -0.650358  4.197263
H    -3.414675  -1.378744  4.176245
H    -2.960335  1.346434  2.817677
H    -5.406838  1.534987  2.857589
H    -5.536829  -0.145558  3.412166
H    -4.849402  0.215591  1.812165
H    -3.990122  2.321409  4.875815
H    -2.731306  1.235261  5.558394
H    -4.368066  0.716964  5.510036
N    -4.037435  -3.343048  2.284197
C    -3.524625  -3.990357  3.488450
H    -4.799484  -3.813005  1.797062
H    -3.624099  -5.075044  3.373542
H    -4.084575  -3.691350  4.386023
H    -2.459349  -3.777877  3.633203
Ca    -0.968536  1.554013  4.007777
