34
Energy: -611972.409507 eV PBE+vdW (tier 2 basis)
C    0.197225  1.999476  0.521404
C    -0.047401  0.611217  1.006897
O    0.448621  -0.374266  0.335385
H    -0.226016  2.759442  1.185566
H    -0.255329  2.103035  -0.475915
H    1.274591  2.169615  0.397991
N    -0.779505  0.423245  2.088994
C    -1.372047  -0.807751  2.601254
C    -2.720462  -0.284858  3.223976
O    -2.777540  0.911737  3.511870
H    -1.265907  1.224923  2.547877
H    -1.561345  -1.504517  1.769193
C    -0.536391  -1.486780  3.719561
C    0.789422  -2.103121  3.333758
C    1.961808  -1.325085  3.180183
C    0.947056  -3.516210  3.243314
C    3.220263  -1.916986  2.951354
C    2.195937  -4.120993  3.075494
C    3.361947  -3.331157  2.971031
O    4.523634  -3.972173  2.875808
H    -1.162379  -2.266945  4.172726
H    -0.364108  -0.738953  4.507901
H    1.906122  -0.238827  3.263684
H    0.072508  -4.157806  3.363208
H    4.101419  -1.279499  2.857035
H    2.292281  -5.206645  3.060663
H    5.294819  -3.375014  2.893786
N    -3.686648  -1.189052  3.428476
C    -4.978656  -0.857122  4.035448
H    -3.558447  -2.135042  3.084459
H    -5.781027  -0.941495  3.292522
H    -4.933353  0.171258  4.402797
H    -5.182809  -1.536423  4.870775
Pb    1.481717  -2.307230  0.658522
