34
Energy: -611972.28411 eV PBE+vdW (tier 2 basis)
C    0.237116  1.973630  0.708653
C    0.005374  1.176364  1.945889
O    0.971326  0.986221  2.758400
H    0.557407  2.985497  0.996159
H    -0.649220  2.046166  0.069945
H    1.064428  1.529303  0.139163
N    -1.215584  0.683598  2.193227
C    -1.599137  0.037694  3.454685
C    -0.974497  -1.369177  3.568656
O    0.019498  -1.521770  4.370986
H    -1.953448  0.907483  1.528372
H    -1.111934  0.604551  4.262998
C    -3.114423  0.112633  3.737178
C    -3.425792  -0.399542  5.125591
C    -3.890704  -1.708587  5.335317
C    -3.259933  0.436434  6.242152
C    -4.172560  -2.178214  6.609416
C    -3.539838  -0.014045  7.526033
C    -3.998102  -1.331014  7.718786
O    -4.301821  -1.843318  8.925996
H    -3.691990  -0.433536  2.980763
H    -3.399648  1.172217  3.649942
H    -4.077043  -2.367503  4.486090
H    -2.942999  1.473069  6.108283
H    -4.555148  -3.184438  6.772044
H    -3.431299  0.657962  8.378424
H    -4.202638  -1.176757  9.628347
N    -1.378650  -2.415098  2.874096
C    -2.437684  -2.543512  1.871134
H    -0.864394  -3.271374  3.090054
H    -2.602327  -1.600407  1.345562
H    -3.374328  -2.880798  2.332179
H    -2.118448  -3.293096  1.139547
Pb    1.795690  -0.149481  4.532270
