34
Energy: -611972.523052 eV PBE+vdW (tier 2 basis)
C    -3.280404  0.899978  0.746552
C    -2.464950  0.821541  1.994543
O    -1.196336  0.836989  1.893348
H    -4.359659  0.865782  0.926827
H    -2.995859  0.068594  0.086736
H    -3.029407  1.826616  0.212335
N    -3.108092  0.723919  3.164493
C    -2.566903  0.536685  4.527077
C    -1.845079  1.791679  5.029593
O    -0.656647  2.078866  4.655956
H    -4.121813  0.698025  3.097541
H    -3.457464  0.395632  5.153313
C    -1.716127  -0.745420  4.730357
C    -2.449056  -2.028552  4.486626
C    -2.709878  -2.514452  3.192154
C    -2.878363  -2.794236  5.588771
C    -3.399958  -3.702533  2.997976
C    -3.580988  -3.973165  5.412747
C    -3.850748  -4.438850  4.111337
O    -4.523749  -5.596178  4.012694
H    -1.350828  -0.715170  5.767534
H    -0.795251  -0.717829  4.090314
H    -2.333937  -1.986052  2.314685
H    -2.659115  -2.458146  6.603465
H    -3.575626  -4.076611  1.988642
H    -3.921903  -4.561501  6.263100
H    -4.647210  -5.861472  3.084156
N    -2.457528  2.554876  5.917147
C    -1.876857  3.756452  6.526947
H    -3.405763  2.305854  6.187510
H    -2.007002  4.620784  5.863077
H    -0.809977  3.598037  6.710272
H    -2.390548  3.946309  7.473353
Pb    0.675023  1.093552  3.125820
