34
Energy: -611972.553683 eV PBE+vdW (tier 2 basis)
C    -3.066452  -1.195837  -0.386601
C    -2.090639  -1.124907  0.737839
O    -0.868488  -1.433105  0.514010
H    -4.074865  -0.881905  -0.098944
H    -3.100971  -2.222738  -0.775519
H    -2.705160  -0.557430  -1.205030
N    -2.516683  -0.724347  1.936171
C    -1.692752  -0.378403  3.103583
C    -1.190932  -1.642129  3.827259
O    -0.143019  -2.251488  3.406676
H    -3.471736  -0.359312  1.971978
H    -0.786213  0.131763  2.738543
C    -2.485832  0.623658  3.982513
C    -3.035923  1.771666  3.171684
C    -2.192948  2.788600  2.687889
C    -4.407378  1.841209  2.876429
C    -2.696174  3.832774  1.929573
C    -4.929643  2.884695  2.116927
C    -4.073402  3.889504  1.636400
O    -4.489891  4.938757  0.903573
H    -1.816576  0.974869  4.780745
H    -3.333938  0.114119  4.469143
H    -1.129164  2.784662  2.934022
H    -5.095242  1.096543  3.285199
H    -2.051922  4.633842  1.570521
H    -6.001037  2.933724  1.918533
H    -5.456267  4.929344  0.788056
N    -1.821104  -2.069675  4.901141
C    -1.462819  -3.242154  5.703129
H    -2.623018  -1.525629  5.213517
H    -0.494611  -3.626342  5.376794
H    -2.230781  -4.017049  5.585309
H    -1.410246  -2.948186  6.757536
Pb    0.985825  -2.216092  1.465400
