34
Energy: -611972.376382 eV PBE+vdW (tier 2 basis)
C    0.590727  0.783243  0.998342
C    0.021614  0.521347  2.350913
O    0.461136  1.153395  3.358567
H    0.116738  0.188505  0.210380
H    1.668957  0.573425  1.015467
H    0.479624  1.851421  0.766493
N    -0.973336  -0.398330  2.472462
C    -1.560187  -0.573489  3.787067
C    -0.762863  -1.544617  4.673390
O    -0.079227  -1.050923  5.638767
H    -1.325905  -0.858649  1.637926
H    -1.315542  0.393888  4.223939
C    -3.087635  -0.575304  4.048323
C    -3.175498  -0.024524  5.465851
C    -2.784252  1.310525  5.697044
C    -3.381248  -0.841777  6.580401
C    -2.519310  1.785038  6.993052
C    -3.159620  -0.381068  7.881290
C    -2.695437  0.923441  8.102738
O    -2.428322  1.444885  9.311578
H    -3.554286  -1.563393  3.964255
H    -3.570217  0.090836  3.318724
H    -2.745367  2.021938  4.865254
H    -3.711651  -1.872403  6.443282
H    -2.315191  2.841035  7.178169
H    -3.345373  -1.044656  8.727047
H    -2.654679  0.827403  10.030044
N    -0.749566  -2.848080  4.471030
C    -1.418917  -3.621471  3.425522
H    -0.155564  -3.372726  5.116611
H    -0.675029  -4.031255  2.730666
H    -2.127981  -3.000314  2.873320
H    -1.968411  -4.451528  3.884512
Pb    0.260822  1.206181  5.775578
