34
Energy: -611972.37513 eV PBE+vdW (tier 2 basis)
C    0.156954  -1.682712  0.468021
C    -0.054937  -1.047656  1.798540
O    0.925647  -0.453590  2.370670
H    0.535963  -0.926209  -0.232859
H    -0.754754  -2.132738  0.062353
H    0.935515  -2.453510  0.554426
N    -1.262230  -1.104586  2.364468
C    -1.628784  -0.391687  3.585791
C    -0.878631  -0.948183  4.803544
O    0.040539  -0.216330  5.338882
H    -2.055117  -1.410863  1.785333
H    -1.274750  0.647444  3.488637
C    -3.185137  -0.315435  3.736175
C    -3.851122  -0.028869  2.416951
C    -4.348378  -1.087467  1.629302
C    -3.973137  1.281192  1.925709
C    -4.940031  -0.853233  0.394889
C    -4.569051  1.532658  0.696652
C    -5.054580  0.464725  -0.082071
O    -5.647992  0.626273  -1.278620
H    -3.394040  0.468198  4.475837
H    -3.575632  -1.251858  4.148881
H    -4.330096  -2.110779  2.014275
H    -3.627200  2.124912  2.525515
H    -5.350897  -1.666715  -0.200959
H    -4.678214  2.558920  0.343104
H    -5.728841  1.568082  -1.510497
N    -1.134118  -2.120205  5.354790
C    -2.074866  -3.175769  4.967857
H    -0.571425  -2.310976  6.186487
H    -2.298906  -3.129864  3.899829
H    -3.000790  -3.102372  5.552224
H    -1.602644  -4.140671  5.181762
Pb    1.705792  0.690160  4.138971
