34
Energy: -611972.298848 eV PBE+vdW (tier 2 basis)
C    -0.435518  -1.843093  -0.164483
C    -0.328633  -1.113655  1.130561
O    0.775521  -0.554908  1.442662
H    -1.416907  -2.302181  -0.322194
H    0.343592  -2.615635  -0.212972
H    -0.233045  -1.136677  -0.982525
N    -1.397887  -1.045006  1.933824
C    -1.488610  -0.225251  3.148826
C    -0.693520  -0.864948  4.310129
O    0.484844  -0.403306  4.550838
H    -2.252818  -1.489594  1.605087
H    -0.930872  0.700365  2.942462
C    -2.941987  0.181170  3.452198
C    -3.084282  0.903532  4.774211
C    -2.270657  2.001777  5.109192
C    -4.088454  0.524094  5.678188
C    -2.432569  2.680227  6.306903
C    -4.271334  1.196333  6.880968
C    -3.436697  2.279282  7.208133
O    -3.542075  2.985539  8.348886
H    -3.601805  -0.696741  3.439254
H    -3.269515  0.821952  2.616899
H    -1.515099  2.367812  4.410745
H    -4.770533  -0.289413  5.424026
H    -1.813746  3.539009  6.561601
H    -5.070450  0.894683  7.559344
H    -4.281042  2.665755  8.895970
N    -1.116541  -1.879424  5.037333
C    -2.388081  -2.603247  5.009341
H    -0.455117  -2.164330  5.761879
H    -2.746109  -2.733225  3.984381
H    -3.141073  -2.077310  5.609254
H    -2.217535  -3.594592  5.439675
Pb    2.067558  0.260000  3.104407
