34
Energy: -611972.524117 eV PBE+vdW (tier 2 basis)
C    -0.302662  2.221303  0.692469
C    -0.392909  1.291056  1.856541
O    0.249578  1.580381  2.916446
H    -0.655870  3.215163  0.999852
H    -0.873546  1.886749  -0.179667
H    0.754079  2.334531  0.413161
N    -1.136252  0.185498  1.725623
C    -1.324202  -0.943374  2.660973
C    -2.155732  -0.536902  3.883343
O    -1.639887  0.115150  4.854643
H    -1.575080  0.067641  0.816614
H    -1.913530  -1.671291  2.088190
C    -0.025957  -1.693876  3.061036
C    0.705057  -2.329547  1.918667
C    0.598777  -3.720969  1.724281
C    1.514975  -1.590664  1.036861
C    1.234226  -4.347781  0.666955
C    2.171493  -2.206063  -0.019510
C    2.027679  -3.593311  -0.218736
O    2.627007  -4.266470  -1.213698
H    -0.323031  -2.463207  3.789039
H    0.673044  -1.014254  3.615404
H    0.005196  -4.323218  2.413930
H    1.677371  -0.523336  1.194839
H    1.145784  -5.421476  0.509318
H    2.812817  -1.623062  -0.681596
H    3.175981  -3.680066  -1.763785
N    -3.416270  -0.930247  3.935242
C    -4.345200  -0.679574  5.040623
H    -3.781562  -1.447821  3.138804
H    -4.815776  -1.625116  5.332741
H    -5.122333  0.023869  4.716517
H    -3.797784  -0.259854  5.886887
Pb    0.411522  1.017142  5.093990
