34
Energy: -611972.014184 eV PBE+vdW (tier 2 basis)
C    -0.419788  -0.122903  -0.185220
C    -0.459539  0.608420  1.107693
O    -0.220754  1.867750  1.135084
H    -1.270057  0.171530  -0.818963
H    -0.399616  -1.209970  -0.068699
H    0.483846  0.202050  -0.721622
N    -0.733842  -0.021378  2.267591
C    -1.849467  -0.953510  2.433805
C    -3.150721  -0.116028  2.414646
O    -3.121353  1.170262  2.343708
H    -0.521856  0.529896  3.101646
H    -1.865777  -1.635745  1.573009
C    -1.661856  -1.787199  3.733596
C    -2.724157  -2.831260  3.965776
C    -2.894467  -3.908082  3.070867
C    -3.548513  -2.775913  5.104077
C    -3.850963  -4.885828  3.296884
C    -4.503931  -3.754101  5.352600
C    -4.662438  -4.820062  4.448553
O    -5.555525  -5.810718  4.610721
H    -1.621563  -1.102348  4.594285
H    -0.667883  -2.252605  3.647558
H    -2.247284  -4.007467  2.196796
H    -3.424298  -1.965419  5.823855
H    -3.973477  -5.727081  2.616440
H    -5.116618  -3.703433  6.253653
H    -6.043923  -5.717403  5.447985
N    -4.290199  -0.768548  2.497118
C    -5.629927  -0.184472  2.541020
H    -4.212642  -1.783405  2.628546
H    -6.201920  -0.515237  1.665521
H    -5.560894  0.904796  2.548427
H    -6.138906  -0.528846  3.449055
Pb    -1.956228  3.082770  1.972089
