34
Energy: -611972.335371 eV PBE+vdW (tier 2 basis)
C    0.423862  -1.440580  0.264991
C    0.402667  -1.050560  1.703513
O    1.523161  -0.995082  2.344440
H    1.102324  -0.781414  -0.292183
H    -0.570549  -1.422514  -0.191655
H    0.836482  -2.457282  0.186924
N    -0.752554  -0.795852  2.288973
C    -1.054186  -0.661077  3.710609
C    -2.497797  -1.277774  3.796076
O    -3.138170  -1.341509  2.744537
H    -1.652725  -0.966838  1.787647
H    -0.328898  -1.243191  4.298810
C    -1.117094  0.810092  4.202285
C    0.175492  1.593166  4.247229
C    0.745449  2.167229  3.082132
C    0.801786  1.910931  5.483238
C    1.876499  2.998977  3.146222
C    1.889460  2.789494  5.571619
C    2.420723  3.378169  4.404870
O    3.413624  4.262695  4.377812
H    -1.554052  0.807903  5.209049
H    -1.832440  1.345108  3.559915
H    0.288739  1.983986  2.108553
H    0.392412  1.499394  6.407273
H    2.288768  3.448345  2.242158
H    2.302249  3.036987  6.550893
H    3.711777  4.527810  5.268372
N    -2.974106  -1.671741  4.987404
C    -2.323068  -1.681439  6.291046
H    -3.934747  -2.009676  4.944297
H    -2.681547  -2.546286  6.859368
H    -2.550071  -0.774342  6.870071
H    -1.237032  -1.788947  6.189871
Pb    2.580557  0.281822  3.808644
