34
Energy: -611972.464343 eV PBE+vdW (tier 2 basis)
C    0.440582  -1.136369  1.145452
C    -0.322536  0.142843  0.981047
O    0.209017  1.191562  0.583180
H    -0.183086  -1.999368  1.402000
H    1.189753  -0.991662  1.936604
H    0.993040  -1.342714  0.220741
N    -1.663299  0.109576  1.283424
C    -2.541695  1.264657  1.437110
C    -2.781854  2.113488  0.181111
O    -3.962091  2.633105  0.025150
H    -2.055392  -0.784131  1.561543
H    -3.529482  0.844498  1.671906
C    -2.098788  2.168937  2.639226
C    -3.042713  3.282372  3.030824
C    -4.084848  3.077874  3.974480
C    -2.874174  4.607497  2.552581
C    -4.860374  4.136109  4.475881
C    -3.663901  5.672437  3.021793
C    -4.625903  5.459002  4.041546
O    -5.259862  6.536866  4.499787
H    -1.111358  2.589696  2.408207
H    -1.967968  1.497560  3.498024
H    -4.257260  2.076548  4.373330
H    -2.085538  4.823532  1.829579
H    -5.617621  3.931385  5.234550
H    -3.493572  6.688785  2.665395
H    -5.862737  6.337224  5.240199
N    -1.812385  2.319514  -0.666798
C    -1.905014  3.079240  -1.909087
H    -0.879563  1.924528  -0.345977
H    -1.511090  2.463570  -2.726297
H    -1.289012  3.984753  -1.834959
H    -2.943408  3.346825  -2.118212
Pb    -5.247587  3.769464  1.433419
