34
Energy: -611971.917401 eV PBE+vdW (tier 2 basis)
C    -2.768132  -1.952508  -1.972702
C    -2.332939  -0.782437  -1.164407
O    -1.859496  0.260148  -1.788836
H    -1.963010  -2.279830  -2.642785
H    -3.595164  -1.622958  -2.620850
H    -3.115327  -2.792101  -1.364402
N    -2.445493  -0.723375  0.141973
C    -2.545011  -1.771715  1.153325
C    -2.756267  -0.946772  2.453622
O    -2.371863  0.234917  2.446436
H    -2.247001  0.167007  0.653427
H    -3.384688  -2.448748  0.958516
C    -1.194295  -2.581610  1.222278
C    0.001720  -1.703476  0.933087
C    0.531879  -0.823215  1.901343
C    0.553459  -1.662648  -0.345347
C    1.540317  0.092430  1.607869
C    1.553343  -0.719647  -0.692749
C    2.076075  0.148336  0.312056
O    3.059398  0.982556  -0.077478
H    -1.239463  -3.396856  0.488649
H    -1.114371  -3.048365  2.212482
H    0.145744  -0.847090  2.919898
H    0.227376  -2.371974  -1.107163
H    1.936561  0.735628  2.395090
H    2.128176  -0.840648  -1.617374
H    3.439560  1.476030  0.673299
N    -3.280879  -1.557249  3.521809
C    -3.879085  -2.892300  3.594426
H    -3.377537  -0.954067  4.336752
H    -4.092685  -3.110566  4.644459
H    -3.193101  -3.667495  3.232143
H    -4.824013  -2.944274  3.036909
Pb    0.080356  1.285337  -1.655592
