34
Energy: -611972.27833 eV PBE+vdW (tier 2 basis)
C    0.608146  -3.350186  2.091293
C    0.116599  -3.059562  3.466535
O    0.902926  -3.230088  4.462345
H    0.981399  -4.382179  2.048187
H    1.463830  -2.694418  1.875194
H    -0.159134  -3.204684  1.323996
N    -1.130766  -2.613246  3.641328
C    -1.660583  -2.230109  4.945478
C    -1.811685  -3.465315  5.850471
O    -1.064606  -3.503462  6.907842
H    -1.734117  -2.486122  2.826384
H    -0.871138  -1.647098  5.447842
C    -2.860904  -1.236746  4.857728
C    -4.064532  -1.656612  4.066113
C    -4.060123  -1.609656  2.657490
C    -5.236843  -2.081181  4.709492
C    -5.158134  -2.023260  1.915978
C    -6.352904  -2.482636  3.984376
C    -6.317070  -2.470766  2.577763
O    -7.350418  -2.842726  1.800624
H    -2.429497  -0.312423  4.442971
H    -3.140987  -1.001936  5.893946
H    -3.212891  -1.170085  2.121842
H    -5.287632  -2.082755  5.799688
H    -5.164731  -1.963912  0.828758
H    -7.263359  -2.783405  4.504970
H    -8.131485  -3.072851  2.333847
N    -2.607272  -4.490994  5.622849
C    -3.481116  -4.826643  4.496223
H    -2.549280  -5.206070  6.352099
H    -3.170850  -5.803026  4.103490
H    -3.431265  -4.068358  3.714261
H    -4.518363  -4.892417  4.842937
Pb    1.153786  -3.213070  6.715659
