34
Energy: -611972.011343 eV PBE+vdW (tier 2 basis)
C    -1.909262  -1.828662  0.661168
C    -0.907794  -1.070238  1.455170
O    0.341404  -1.320792  1.310517
H    -1.855790  -1.540865  -0.399734
H    -2.932681  -1.712184  1.028183
H    -1.627357  -2.891047  0.701095
N    -1.278032  -0.123454  2.339830
C    -2.255521  0.923859  2.036563
C    -1.565037  1.917343  1.073015
O    -0.343423  1.758273  0.696365
H    -0.530003  0.172458  2.970254
H    -3.104334  0.466802  1.509952
C    -2.773714  1.577614  3.350486
C    -3.881671  2.581822  3.156365
C    -3.669442  3.951197  3.415773
C    -5.166990  2.172126  2.753460
C    -4.690759  4.878982  3.277250
C    -6.200684  3.087876  2.608547
C    -5.969893  4.453203  2.873489
O    -6.917949  5.399193  2.766741
H    -1.928014  2.051934  3.871094
H    -3.112837  0.743427  3.982889
H    -2.690327  4.291168  3.757249
H    -5.379070  1.115419  2.578590
H    -4.532603  5.933435  3.497888
H    -7.194045  2.748649  2.311912
H    -7.779855  5.015719  2.525387
N    -2.256262  2.954991  0.654408
C    -1.742117  4.008549  -0.224979
H    -3.185034  3.077682  1.070422
H    -1.484705  3.591689  -1.205806
H    -0.853616  4.477790  0.213737
H    -2.525904  4.759638  -0.348767
Pb    1.538320  0.487404  0.615490
