34
Energy: -611972.547863 eV PBE+vdW (tier 2 basis)
C    -2.752417  -1.274566  1.424764
C    -1.994691  0.003543  1.567048
O    -1.027706  0.047975  2.393281
H    -3.161685  -1.552109  2.406293
H    -2.056496  -2.073858  1.135598
H    -3.567675  -1.220628  0.696129
N    -2.379002  1.051562  0.827868
C    -1.887748  2.445619  0.835547
C    -0.476393  2.552605  0.245201
O    0.557984  2.241418  0.928641
H    -3.182677  0.883028  0.229129
H    -2.570377  2.973943  0.157261
C    -2.007843  3.186925  2.193974
C    -3.403313  3.317349  2.720072
C    -4.054991  4.561842  2.642406
C    -4.088561  2.239061  3.315057
C    -5.357189  4.719979  3.093212
C    -5.383628  2.382811  3.780911
C    -6.035630  3.627097  3.664209
O    -7.290442  3.694254  4.136160
H    -1.568798  4.184135  2.042930
H    -1.364372  2.696634  2.972851
H    -3.536381  5.423459  2.219138
H    -3.591885  1.278572  3.459288
H    -5.848190  5.690732  3.015008
H    -5.911395  1.559078  4.258639
H    -7.660368  4.589927  4.039615
N    -0.350925  3.031418  -0.980269
C    0.914083  3.247406  -1.687942
H    -1.203354  3.265152  -1.484494
H    0.924506  4.263649  -2.097660
H    1.004305  2.526944  -2.510549
H    1.745818  3.118655  -0.992428
Pb    0.736436  1.322388  2.981109
