34
Energy: -611973.364534 eV PBE+vdW (tier 2 basis)
C    1.051435  -0.129764  0.342721
C    0.703105  0.073710  1.783989
O    1.633804  0.276903  2.612892
H    1.776321  -0.950821  0.265103
H    1.554764  0.773521  -0.028791
H    0.188053  -0.348116  -0.294092
N    -0.599560  0.021182  2.117452
C    -1.291320  0.170231  3.418384
C    -1.145138  1.592233  3.982569
O    -0.050132  2.022168  4.455096
H    -1.225094  -0.143959  1.333978
H    -2.346817  0.046564  3.143659
C    -1.051392  -0.967208  4.456956
C    0.187802  -1.037710  5.333304
C    0.189742  -0.478258  6.637068
C    1.303361  -1.844869  4.983071
C    1.232888  -0.703492  7.538724
C    2.356910  -2.068836  5.869690
C    2.320268  -1.524683  7.173081
O    3.340329  -1.829362  7.979345
H    -1.139279  -1.908367  3.896162
H    -1.924740  -0.939277  5.124410
H    -0.658880  0.124330  6.963929
H    1.334865  -2.324888  4.004474
H    1.182312  -0.271056  8.539001
H    3.195578  -2.705631  5.589969
H    3.222595  -1.474143  8.879193
N    -2.229905  2.356321  3.971144
C    -2.297952  3.731074  4.471074
H    -3.078679  1.974223  3.561710
H    -3.173437  3.834386  5.121585
H    -2.391272  4.428818  3.629414
H    -1.388165  3.955998  5.031654
Pb    1.968633  0.925779  4.792080
