34
Energy: -611972.221513 eV PBE+vdW (tier 2 basis)
C    0.150067  1.726536  1.635717
C    -0.181399  0.958184  2.868931
O    0.309338  1.311267  3.984943
H    -0.368515  1.355168  0.745516
H    1.235291  1.683751  1.468165
H    -0.104318  2.783241  1.794147
N    -1.013069  -0.110186  2.766025
C    -1.398630  -0.809719  3.975507
C    -0.393929  -1.901214  4.374818
O    0.428877  -1.616223  5.314051
H    -1.402622  -0.339814  1.855506
H    -1.167823  -0.038253  4.709668
C    -2.908322  -1.049944  4.313465
C    -3.111020  -0.213335  5.568234
C    -3.647607  1.079679  5.497998
C    -2.419273  -0.575140  6.735761
C    -3.453962  2.012791  6.517534
C    -2.149637  0.367182  7.743631
C    -2.671249  1.682293  7.633884
O    -2.394736  2.519978  8.647422
H    -3.114368  -2.114497  4.483528
H    -3.551594  -0.714176  3.490384
H    -4.214224  1.382255  4.616163
H    -2.066541  -1.599469  6.874547
H    -3.906754  3.002355  6.440186
H    -1.688404  0.068916  8.687124
H    -2.859290  3.370668  8.549326
N    -0.349921  -3.084848  3.794631
C    -1.176297  -3.592415  2.699928
H    0.378412  -3.709524  4.147521
H    -0.550943  -3.773355  1.816858
H    -1.963934  -2.878652  2.444818
H    -1.644505  -4.536627  3.002381
Pb    0.519900  0.519125  6.224683
