34
Energy: -611972.541191 eV PBE+vdW (tier 2 basis)
C    -2.370975  0.637549  -0.907783
C    -2.248641  -0.130355  0.363659
O    -1.612945  -1.242510  0.360568
H    -1.358281  0.881751  -1.261676
H    -2.945456  1.563546  -0.801938
H    -2.830142  0.004781  -1.678804
N    -2.779818  0.373662  1.479052
C    -2.585385  -0.086912  2.867453
C    -3.587261  -1.210264  3.190336
O    -3.530329  -2.316441  2.533315
H    -3.262535  1.265605  1.381108
H    -1.589607  -0.557279  2.917373
C    -2.600778  1.166979  3.774042
C    -2.532386  0.906450  5.261216
C    -1.476838  0.176525  5.837605
C    -3.525954  1.423490  6.109455
C    -1.421593  -0.044571  7.204507
C    -3.483203  1.212489  7.486141
C    -2.428486  0.471731  8.043678
O    -2.303012  0.220883  9.360144
H    -3.507966  1.753127  3.553407
H    -1.749600  1.787632  3.450927
H    -0.660779  -0.200067  5.217524
H    -4.329794  2.039137  5.698264
H    -0.596629  -0.593567  7.655937
H    -4.254913  1.640488  8.127199
H    -3.009195  0.652426  9.872332
N    -4.482197  -1.039931  4.133281
C    -5.479265  -2.023821  4.554117
H    -4.371908  -0.202605  4.720829
H    -6.431093  -1.508006  4.720937
H    -5.159320  -2.493308  5.493740
H    -5.600184  -2.786493  3.782319
Pb    -2.053595  -3.281734  1.155223
