34
Energy: -611972.45037 eV PBE+vdW (tier 2 basis)
C    0.720880  3.162034  2.336059
C    0.226898  1.875816  2.910094
O    0.313915  0.820525  2.205409
H    0.601637  4.016009  3.010549
H    0.180673  3.361099  1.399961
H    1.781365  3.051910  2.071060
N    -0.299600  1.893375  4.141762
C    -0.944778  0.800424  4.896840
C    0.068806  -0.274948  5.301804
O    0.394317  -1.218309  4.498661
H    -0.347505  2.809504  4.578742
H    -1.300465  1.280410  5.815697
C    -2.211925  0.195438  4.235913
C    -3.326281  1.170965  4.016868
C    -3.303243  2.116451  2.971911
C    -4.450299  1.137258  4.862138
C    -4.340054  3.016000  2.796038
C    -5.492525  2.039562  4.707332
C    -5.443922  2.991683  3.672073
O    -6.412926  3.891969  3.442647
H    -2.548252  -0.621338  4.891294
H    -1.958590  -0.295939  3.258666
H    -2.483771  2.126090  2.251670
H    -4.512203  0.393054  5.657653
H    -4.337372  3.734800  1.978334
H    -6.351165  2.002308  5.378865
H    -7.148271  3.793126  4.073414
N    0.583636  -0.278765  6.519357
C    0.365588  0.676203  7.613547
H    1.210805  -1.062546  6.708689
H    -0.643641  0.576044  8.032418
H    0.541097  1.705673  7.281492
H    1.087895  0.449311  8.402547
Pb    0.054276  -1.422197  2.283494
