34
Energy: -611971.869092 eV PBE+vdW (tier 2 basis)
C    -0.599737  -0.084748  2.257051
C    -1.837720  0.025438  3.074000
O    -2.008509  -0.782940  4.054814
H    -0.774603  -0.759995  1.403021
H    0.176598  -0.551484  2.874477
H    -0.253079  0.879634  1.877665
N    -2.799116  0.947242  2.843764
C    -3.412214  1.278327  1.549600
C    -4.205043  0.029653  1.093581
O    -4.324409  -1.006389  1.849822
H    -3.444355  1.040233  3.629629
H    -4.154538  2.056431  1.781857
C    -2.461012  1.880148  0.472047
C    -3.190142  2.548856  -0.670335
C    -3.996269  3.684726  -0.455359
C    -3.036517  2.080689  -1.988709
C    -4.630737  4.322810  -1.507516
C    -3.662896  2.713444  -3.058356
C    -4.466721  3.842533  -2.823983
O    -5.103844  4.520988  -3.792837
H    -1.795313  1.105996  0.071919
H    -1.835569  2.615505  0.999634
H    -4.108474  4.101551  0.547755
H    -2.390202  1.224060  -2.189005
H    -5.241310  5.209922  -1.346543
H    -3.512335  2.346646  -4.074428
H    -4.910347  4.153082  -4.673371
N    -4.784144  0.058474  -0.085431
C    -5.581652  -1.030178  -0.655466
H    -4.608310  0.893489  -0.660118
H    -5.924923  -0.717447  -1.644537
H    -6.451167  -1.235027  -0.019764
H    -4.980611  -1.942304  -0.750784
Pb    -3.907013  -2.029136  3.835151
