34
Energy: -611972.310589 eV PBE+vdW (tier 2 basis)
C    0.461484  -1.397207  0.600453
C    0.266473  -0.932288  2.003462
O    1.249854  -1.044480  2.833610
H    1.343395  -0.911576  0.163044
H    -0.414626  -1.215328  -0.029725
H    0.671703  -2.476862  0.618924
N    -0.904435  -0.443724  2.366516
C    -1.416334  -0.180000  3.707411
C    -2.943977  -0.512736  3.542924
O    -3.391698  -0.515820  2.394113
H    -1.720634  -0.475131  1.715342
H    -0.929343  -0.853428  4.428580
C    -1.279532  1.302226  4.147432
C    0.111213  1.830615  4.416279
C    0.962802  2.265093  3.372776
C    0.573435  2.045089  5.746518
C    2.202019  2.883256  3.635526
C    1.772300  2.708074  6.024426
C    2.586486  3.179866  4.971303
O    3.680888  3.857775  5.306351
H    -1.879637  1.438703  5.056265
H    -1.752162  1.923837  3.372668
H    0.651081  2.146569  2.334094
H    -0.052515  1.731864  6.583783
H    2.818876  3.220225  2.800259
H    2.076300  2.903404  7.052834
H    4.153439  4.229247  4.538022
N    -3.687038  -0.743480  4.636317
C    -3.286523  -0.800701  6.036346
H    -4.672372  -0.899213  4.427158
H    -2.242709  -1.119698  6.136409
H    -3.902514  -1.546308  6.550194
H    -3.425995  0.165300  6.543280
Pb    2.272725  0.093005  4.434643
