34
Energy: -611972.653858 eV PBE+vdW (tier 2 basis)
C    0.501182  -1.549865  0.942526
C    0.301481  -0.942895  2.288193
O    1.323700  -0.489124  2.920223
H    0.925098  -0.786270  0.273940
H    -0.426014  -1.934482  0.505601
H    1.241382  -2.358127  1.009605
N    -0.928198  -0.860501  2.789794
C    -1.326330  -0.180670  4.027151
C    -0.988151  -1.087421  5.223922
O    0.167871  -0.977413  5.785442
H    -1.699590  -1.272836  2.254199
H    -0.684750  0.707085  4.140669
C    -2.792667  0.329514  3.918814
C    -3.834555  -0.701464  3.556824
C    -4.006561  -1.127928  2.223632
C    -4.695086  -1.243729  4.529056
C    -4.945598  -2.092107  1.883803
C    -5.649074  -2.206384  4.202631
C    -5.769516  -2.652902  2.876425
O    -6.659387  -3.577717  2.472481
H    -2.774666  1.133185  3.167954
H    -3.037720  0.812128  4.874926
H    -3.458091  -0.637025  1.413833
H    -4.666529  -0.863903  5.553559
H    -5.091388  -2.398139  0.848895
H    -6.322831  -2.585696  4.972174
H    -7.229988  -3.867283  3.205391
N    -1.864096  -1.967047  5.643832
C    -1.677608  -2.907610  6.748893
H    -2.775083  -1.971339  5.158011
H    -2.586090  -2.912026  7.360897
H    -0.823265  -2.604062  7.357849
H    -1.512390  -3.918008  6.352800
Pb    2.108508  -0.205939  4.988056
