27
Energy: -102789.795909 eV PBE+vdW (tier 2 basis)
C    -0.345764  -0.131786  -0.147032
C    -0.168738  -0.496719  1.296946
O    0.932528  -0.780296  1.790204
H    0.632353  -0.151789  -0.634002
H    -0.782784  0.870811  -0.257043
H    -1.012935  -0.840136  -0.658758
N    -1.292704  -0.521304  2.099545
C    -1.128005  -0.586853  3.561329
C    -0.851401  -2.030362  4.025426
O    -1.755228  -2.686724  4.686113
H    -0.259591  0.020803  3.857455
C    -2.445117  0.004157  4.078417
C    -3.472687  -0.352013  2.991839
C    -2.663387  -0.155337  1.702077
H    -2.349475  1.096617  4.137575
H    -2.678622  -0.302723  5.114177
H    -4.377780  0.264919  3.015482
H    -3.793645  -1.419321  3.028940
H    -2.717340  0.898239  1.384843
H    -3.021651  -0.778044  0.873998
N    0.309771  -2.530381  3.706530
C    0.805300  -3.868438  4.003213
H    0.859384  -1.891556  3.069543
H    0.106421  -4.401087  4.652422
H    1.779211  -3.783542  4.499955
H    0.942111  -4.423350  3.066392
Sr    -3.800225  -2.815784  5.396412
