27
Energy: -102791.14827 eV PBE+vdW (tier 2 basis)
C    -0.374137  -0.456852  -0.197295
C    -0.322188  0.671861  0.789140
O    0.624846  1.531101  0.705174
H    -1.266426  -0.371347  -0.835196
H    -0.425912  -1.437056  0.295501
H    0.507097  -0.414835  -0.842476
N    -1.253237  0.751609  1.742384
C    -1.479034  1.898725  2.662769
C    -0.291911  2.413290  3.470690
O    0.828653  1.810135  3.530767
H    -1.853755  2.738869  2.053276
C    -2.605276  1.384703  3.597154
C    -3.417298  0.460274  2.693302
C    -2.350659  -0.254577  1.874683
H    -3.201359  2.202322  4.011914
H    -2.161305  0.827775  4.435129
H    -4.080831  1.042266  2.039423
H    -4.037468  -0.241966  3.260033
H    -2.707484  -0.561892  0.887076
H    -1.955915  -1.138827  2.396445
N    -0.456022  3.537783  4.163663
C    -1.614339  4.431264  4.264953
H    0.335596  3.767363  4.764035
H    -2.256478  4.146767  5.107854
H    -2.197477  4.427534  3.339165
H    -1.246069  5.448333  4.433115
Sr    2.493390  1.724376  1.959320
