27
Energy: -102790.831878 eV PBE+vdW (tier 2 basis)
C    1.069467  -0.470757  0.579581
C    0.510195  -0.169127  1.937067
O    1.256642  0.347226  2.832733
H    0.573154  -1.316681  0.092260
H    2.136836  -0.691855  0.691796
H    0.986483  0.404682  -0.084424
N    -0.790838  -0.403635  2.199280
C    -1.823178  -0.177986  1.182274
C    -1.805073  1.331079  0.814947
O    -1.077730  2.142846  1.482243
H    -1.635273  -0.772094  0.278731
C    -3.118977  -0.609090  1.900258
C    -2.874016  -0.187603  3.355354
C    -1.373561  -0.416132  3.567983
H    -3.214873  -1.698998  1.810240
H    -4.021262  -0.160739  1.472526
H    -3.477313  -0.766145  4.062264
H    -3.133377  0.870332  3.499176
H    -1.147455  -1.392053  4.018502
H    -0.913764  0.336561  4.226252
N    -2.547795  1.772433  -0.184819
C    -3.435622  1.022877  -1.078986
H    -2.507434  2.781534  -0.334076
H    -3.197643  -0.043618  -1.068438
H    -4.482832  1.164278  -0.782437
H    -3.302915  1.400508  -2.098507
Sr    0.636152  2.569158  2.994221
