27
Energy: -102791.124923 eV PBE+vdW (tier 2 basis)
C    -0.415702  -0.367791  -0.242936
C    -0.370458  0.729041  0.777230
O    0.499225  1.663388  0.661544
H    -1.433885  -0.523294  -0.623826
H    -0.089230  -1.326860  0.186735
H    0.242227  -0.110249  -1.077061
N    -1.227703  0.707704  1.801640
C    -1.514352  1.850397  2.705559
C    -0.354094  2.300875  3.603704
O    0.806090  1.777376  3.541507
H    -1.760664  2.723177  2.078196
C    -2.767200  1.371770  3.497304
C    -2.696168  -0.154420  3.433766
C    -2.183027  -0.413919  2.026876
H    -3.669542  1.744810  2.996225
H    -2.784219  1.739834  4.526298
H    -3.668896  -0.625039  3.610386
H    -1.992773  -0.548452  4.180391
H    -2.992390  -0.361728  1.282749
H    -1.669003  -1.374600  1.919713
N    -0.562006  3.310462  4.443974
C    -1.746587  4.151776  4.646636
H    0.237893  3.518895  5.041391
H    -1.407317  5.174120  4.844725
H    -2.332752  3.805176  5.507022
H    -2.379852  4.165832  3.755453
Sr    2.386385  1.915716  1.884800
