27
Energy: -102790.873777 eV PBE+vdW (tier 2 basis)
C    -1.366355  -0.265662  -0.298404
C    -0.723909  -0.340457  1.053645
O    0.473875  -0.764432  1.167924
H    -0.919582  -1.039616  -0.932351
H    -1.165401  0.706116  -0.777419
H    -2.451787  -0.408052  -0.262136
N    -1.393765  0.077778  2.145207
C    -2.289533  1.234224  2.093978
C    -1.425429  2.490716  1.761669
O    -0.159999  2.396115  1.652243
H    -3.057273  1.121379  1.316552
C    -2.896178  1.264145  3.509604
C    -1.730495  0.809707  4.399072
C    -0.976247  -0.216166  3.542764
H    -3.727890  0.548403  3.542495
H    -3.293358  2.245308  3.791946
H    -2.072476  0.376098  5.344172
H    -1.082385  1.660695  4.649780
H    -1.256695  -1.254335  3.765052
H    0.115192  -0.158871  3.676503
N    -2.069591  3.632683  1.606478
C    -1.470805  4.937418  1.317824
H    -3.083870  3.610429  1.699781
H    -1.846616  5.310218  0.357380
H    -1.742715  5.647397  2.107882
H    -0.384886  4.835660  1.274334
Sr    1.777174  1.104106  1.544021
