27
Energy: -102790.90673 eV PBE+vdW (tier 2 basis)
C    -0.401946  -0.441011  -0.104564
C    -0.201860  -0.322473  1.373309
O    0.951798  -0.504748  1.884841
H    -0.100226  0.487112  -0.615345
H    -1.435607  -0.669709  -0.382663
H    0.258814  -1.235165  -0.472880
N    -1.233591  0.009243  2.174996
C    -2.242852  0.996967  1.778551
C    -1.516566  2.323935  1.451064
O    -0.298649  2.494813  1.782408
H    -2.812041  0.659646  0.901390
C    -3.153318  1.142201  3.039396
C    -2.705238  0.006605  3.973617
C    -1.225030  -0.164780  3.640032
H    -4.213013  1.078785  2.772847
H    -2.991145  2.120807  3.511237
H    -3.240184  -0.924247  3.745578
H    -2.873600  0.240873  5.029933
H    -0.800566  -1.140170  3.898302
H    -0.632449  0.624045  4.151362
N    -2.214276  3.272762  0.855274
C    -1.708461  4.614970  0.546403
H    -3.180643  3.067755  0.611055
H    -2.507762  5.180699  0.061371
H    -1.408784  5.130725  1.466193
H    -0.850921  4.551543  -0.133480
Sr    1.711115  1.578816  2.537774
