27
Energy: -102791.283253 eV PBE+vdW (tier 2 basis)
C    0.854220  -0.941458  3.741425
C    0.199100  -0.110495  2.685828
O    0.702979  1.016495  2.350581
H    0.127399  -1.395054  4.425561
H    1.555919  -0.322894  4.307471
H    1.424428  -1.759802  3.274113
N    -0.908792  -0.545290  2.076757
C    -1.519201  0.207015  0.950521
C    -2.013523  1.608700  1.347956
O    -1.349202  2.612398  0.920681
H    -0.725150  0.403856  0.213860
C    -2.548817  -0.766732  0.339624
C    -2.038637  -2.151296  0.769770
C    -1.470430  -1.919249  2.169738
H    -2.595406  -0.647303  -0.747773
H    -3.557587  -0.587614  0.725796
H    -1.245069  -2.499946  0.095345
H    -2.830876  -2.907229  0.767113
H    -0.686483  -2.632843  2.440227
H    -2.247005  -1.951682  2.948349
N    -3.084330  1.821565  2.099846
C    -3.990621  0.889820  2.775867
H    -3.307734  2.811360  2.210715
H    -4.320325  1.358022  3.709429
H    -4.874793  0.684726  2.158783
H    -3.483480  -0.044026  3.024390
Sr    0.872417  3.021955  1.315027
