27
Energy: -102790.87718 eV PBE+vdW (tier 2 basis)
C    1.047324  -0.123770  0.359365
C    0.554937  -0.020795  1.768755
O    1.304599  0.462728  2.679646
H    0.541545  -0.905244  -0.216776
H    2.123281  -0.332879  0.390190
H    0.921573  0.834398  -0.169320
N    -0.696394  -0.410667  2.081770
C    -1.833852  -0.171068  1.188834
C    -1.946836  1.352989  0.953442
O    -1.241133  2.161757  1.646117
H    -1.699177  -0.685654  0.228374
C    -3.065954  -0.722598  1.974810
C    -2.461745  -1.415494  3.208589
C    -1.165573  -0.646856  3.459317
H    -3.657043  -1.404673  1.356146
H    -3.725321  0.102969  2.274732
H    -2.225418  -2.464709  2.990468
H    -3.134850  -1.395735  4.071988
H    -0.405467  -1.194838  4.025064
H    -1.387310  0.302176  3.992032
N    -2.797260  1.808754  0.050969
C    -3.711143  1.044514  -0.804603
H    -2.857855  2.825545  -0.010813
H    -4.685204  0.919847  -0.314663
H    -3.851224  1.596383  -1.739064
H    -3.295107  0.061427  -1.043714
Sr    0.465604  2.558492  3.177346
