21
Energy: -605077.502397 eV PBE+vdW (tier 2 basis)
N    0.669651  0.465021  0.153270
C    0.520281  0.115809  1.516903
C    1.757896  -0.642903  1.990896
O    2.449268  -1.325966  1.155724
H    0.106606  1.245199  -0.171217
H    0.707510  -0.295701  -0.520313
H    0.469376  1.035242  2.115168
C    -0.810924  -0.770126  1.873714
C    -1.437856  -0.409811  3.152373
N    -2.551121  0.286605  3.282639
C    -0.973822  -0.651947  4.553181
C    -2.824685  0.503077  4.677707
N    -1.936286  -0.017220  5.428227
H    -0.540881  -1.835036  1.874182
H    -1.499115  -0.604581  1.036532
H    -0.912917  -1.733514  4.776007
H    -3.711345  1.055626  4.984327
H    -3.149960  0.602502  2.516419
O    2.123473  -0.586355  3.222265
H    0.044704  -0.263010  4.732703
Pb    4.107552  -1.703700  2.697637
