21
Energy: -605078.160831 eV PBE+vdW (tier 2 basis)
N    0.308541  1.004511  0.799449
C    0.010362  0.689843  2.220021
C    1.185963  -0.125093  2.773683
O    1.884821  -0.831450  2.027765
H    -0.524279  1.382487  0.335969
H    1.016976  1.746148  0.740755
H    -0.100709  1.610032  2.815377
C    -1.325908  -0.119537  2.333150
C    -1.475802  -1.178618  1.285065
N    -2.451473  -1.164712  0.331970
C    -0.699334  -2.314978  0.966394
C    -2.269278  -2.249241  -0.506524
N    -1.223163  -2.955557  -0.156056
H    -2.156181  0.597154  2.267692
H    -1.390970  -0.563845  3.337723
H    -0.022725  -2.846477  1.638510
H    -2.933910  -2.456833  -1.341506
H    -3.229299  -0.507286  0.278197
O    1.444136  -0.139169  4.054042
H    0.912371  0.484952  4.588825
Pb    1.274861  -1.134331  -0.227503
