21
Energy: -605077.564090 eV PBE+vdW (tier 2 basis)
N    0.674306  0.199819  -0.862529
C    -0.044462  -0.067837  0.417963
C    0.913658  -0.698361  1.476521
O    2.204430  -0.469177  1.318964
H    0.592629  -0.604083  -1.496701
H    0.256483  0.991571  -1.361156
H    -0.318635  0.915536  0.832434
C    -1.338764  -0.899032  0.168774
C    -2.385203  -0.932352  1.239671
N    -2.184964  -1.170057  2.508612
C    -3.862224  -0.782057  1.084517
C    -3.450440  -1.184038  3.191429
N    -4.427352  -0.965452  2.399778
H    -1.063498  -1.948778  -0.039942
H    -1.825225  -0.519550  -0.740576
H    -4.286060  -1.513526  0.369431
H    -3.495482  -1.368352  4.263203
H    -1.221087  -1.333555  2.874245
O    0.471048  -1.319405  2.425205
H    -4.143122  0.205191  0.670386
Pb    3.151961  0.477494  -0.356230
