21
Energy: -605077.118286 eV PBE+vdW (tier 2 basis)
N    0.939144  0.603853  1.073589
C    0.522645  -0.385338  2.113171
C    1.729027  -1.291229  2.503267
O    2.907805  -0.678469  2.546146
H    0.300553  1.405147  1.055121
H    0.907238  0.200068  0.131322
H    0.338203  0.212113  3.020596
C    -0.797067  -1.146279  1.842732
C    -0.685651  -2.526844  1.139809
N    -1.932580  -3.277500  1.127605
C    -0.335191  -2.640114  -0.297617
C    -2.159856  -3.721695  -0.087690
N    -1.192476  -3.343093  -0.989478
H    -1.498528  -0.499650  1.298088
H    -1.248869  -1.341924  2.824815
H    0.573324  -2.254220  -0.762510
H    -3.016492  -4.340826  -0.353757
H    -2.506606  -3.481178  1.946881
O    1.575806  -2.459895  2.791081
H    0.086920  -3.086178  1.732584
Pb    3.350651  1.216250  1.653243
