21
Energy: -605077.643553 eV PBE+vdW (tier 2 basis)
N    0.275038  -0.522436  -0.082404
C    -0.266137  -0.381026  1.214970
C    0.714293  -0.490468  2.400774
O    0.458428  -0.073202  3.555516
H    0.634510  0.320426  -0.519093
H    0.861237  -1.332563  -0.262714
H    -0.714670  0.619415  1.309477
C    -1.451412  -1.447702  1.419765
C    -2.144801  -1.261780  2.708669
N    -3.016055  -0.220027  2.963217
C    -1.878532  -1.807352  3.956113
C    -3.203838  -0.100612  4.296741
N    -2.513411  -1.058586  4.943431
H    -1.037591  -2.461390  1.347335
H    -2.108888  -1.295648  0.555017
H    -1.320333  -2.709580  4.191946
H    -3.865978  0.625357  4.760088
H    -3.486116  0.345070  2.255894
O    1.845113  -1.076857  2.101975
H    2.460500  -1.114434  2.865464
Pb    -0.485355  -0.097603  5.728818
