21
Energy: -605077.121615 eV PBE+vdW (tier 2 basis)
N    0.262347  -0.343621  -0.178797
C    0.013366  -0.275978  1.316211
C    1.260177  0.155503  2.106524
O    1.291252  0.123910  3.306276
H    1.085981  -0.920594  -0.395595
H    0.435334  0.586985  -0.579123
H    -0.743481  0.510065  1.456872
C    -0.530801  -1.621250  1.822960
C    -1.838198  -1.999567  1.199535
N    -2.071065  -1.752355  -0.154172
C    -2.935884  -2.622371  1.738912
C    -3.267618  -2.214601  -0.419001
N    -3.865264  -2.774143  0.712509
H    -0.620791  -1.544851  2.913557
H    0.216176  -2.412746  1.635980
H    -3.123089  -2.958126  2.753499
H    -3.752537  -2.168728  -1.390310
H    -0.604821  -0.788974  -0.602516
O    2.243716  0.565872  1.276190
H    3.010658  0.859619  1.812231
Pb    -5.811459  -3.794048  0.750257
