21
Energy: -605077.746085 eV PBE+vdW (tier 2 basis)
N    -1.039013  0.704722  0.240332
C    -0.211899  0.241944  1.339861
C    1.100936  -0.343533  0.840238
O    1.168655  -0.991863  -0.222505
H    -1.787209  1.305977  0.591906
H    -0.515938  1.254068  -0.443019
H    0.004225  1.007066  2.108555
C    -0.967086  -0.949455  2.084328
C    -1.028264  -2.129459  1.189153
N    -1.705727  -2.130638  -0.005309
C    -0.240067  -3.276551  1.156940
C    -1.305008  -3.184651  -0.751593
N    -0.407667  -3.920031  -0.069357
H    -1.961473  -0.561669  2.346831
H    -0.459427  -1.210149  3.021159
H    0.346716  -3.717240  1.959420
H    -1.693484  -3.417176  -1.739142
H    -2.297603  -1.360338  -0.322110
O    2.175301  -0.282673  1.596215
H    2.071206  0.304854  2.373497
Pb    1.739104  -3.211141  -0.837454
