21
Energy: -605077.637979 eV PBE+vdW (tier 2 basis)
N    -0.507408  -1.300792  -0.075572
C    0.148671  -0.447657  0.922462
C    1.573721  -0.111710  0.506215
O    1.886278  -0.117969  -0.738577
H    -0.190337  -1.063182  -1.018217
H    -1.519257  -1.153575  -0.061298
H    -0.308103  0.563922  0.978707
C    0.041905  -1.028513  2.357376
C    0.337757  -2.477191  2.514559
N    0.213046  -3.365363  1.560617
C    0.748119  -3.238652  3.730524
C    0.524712  -4.667780  2.088085
N    0.836844  -4.624988  3.323815
H    -0.996175  -0.885232  2.709140
H    0.659208  -0.445912  3.053993
H    0.022421  -3.122305  4.558041
H    0.475387  -5.548249  1.450446
H    -0.095979  -3.042625  0.612435
O    2.437290  0.267770  1.377282
H    1.707088  -2.885471  4.151293
Pb    3.944811  0.845472  -0.289327
