21
Energy: -605078.196429 eV PBE+vdW (tier 2 basis)
N    1.279790  -0.733731  1.003663
C    -0.030858  -0.183627  1.431675
C    0.229179  0.789671  2.584110
O    1.140632  0.576339  3.401885
H    1.137753  -1.534674  0.378841
H    1.787621  -0.036634  0.446224
H    -0.536216  0.325886  0.596601
C    -0.983081  -1.322852  1.945233
C    -0.453803  -2.010681  3.159495
N    -0.839186  -1.740688  4.439426
C    0.639991  -2.884625  3.303334
C    -0.004281  -2.414487  5.306445
N    0.900474  -3.110899  4.656877
H    -1.112852  -2.041358  1.122240
H    -1.976895  -0.893309  2.130608
H    1.034527  -3.560168  2.541267
H    -0.113492  -2.355780  6.386382
H    -1.626423  -1.157806  4.722690
O    -0.558918  1.813004  2.793574
H    -1.207560  1.978480  2.079211
Pb    2.624519  -1.255530  3.140453
