21
Energy: -605077.652360 eV PBE+vdW (tier 2 basis)
N    1.009336  1.747887  2.845084
C    1.503723  0.723890  3.836563
C    2.268134  -0.353412  3.084223
O    2.520186  -0.206078  1.835570
H    1.072809  2.708313  3.207376
H    1.531398  1.685626  1.956539
H    2.238717  1.205044  4.498662
C    0.301851  0.222789  4.718503
C    -0.932225  -0.027242  3.931088
N    -1.321443  -1.250523  3.419512
C    -1.879099  0.872835  3.437433
C    -2.468205  -1.043426  2.692823
N    -2.810417  0.229180  2.671241
H    0.107184  1.008876  5.461130
H    0.646503  -0.654264  5.280940
H    -1.980856  1.931707  3.674041
H    -3.010134  -1.854950  2.215592
H    -0.948291  -2.157346  3.684552
O    2.697339  -1.372287  3.720596
H    -0.011272  1.527337  2.661183
Pb    3.863764  -2.153957  1.860349
