21
Energy: -605077.624985 eV PBE+vdW (tier 2 basis)
N    0.374487  -2.276563  1.720674
C    0.081373  -0.855184  1.395983
C    0.741586  0.003768  2.468409
O    0.844787  -0.373391  3.651396
H    -0.211052  -2.893152  1.146952
H    1.342495  -2.500384  1.460058
H    0.480022  -0.574212  0.410917
C    -1.460809  -0.580055  1.388079
C    -2.091736  -0.797579  2.723306
N    -2.428741  0.193075  3.595595
C    -2.303109  -1.985966  3.451376
C    -2.818603  -0.379337  4.791331
N    -2.752448  -1.688223  4.740261
H    -1.912678  -1.244203  0.636176
H    -1.624519  0.444170  1.027416
H    -2.461993  -2.980278  3.027187
H    -3.138350  0.213409  5.644593
H    -2.439897  1.192364  3.393323
O    1.129343  1.177227  2.046873
H    1.529788  1.714572  2.767797
Pb    0.071056  -2.562060  4.243300
