21
Energy: -605077.551235 eV PBE+vdW (tier 2 basis)
N    -0.415149  -0.773532  2.877311
C    0.593123  -1.387306  2.045976
C    1.941509  -0.659882  1.986000
O    2.065772  0.520271  2.469950
H    -0.314076  -0.989238  3.867378
H    -0.472080  0.239617  2.770388
H    0.832876  -2.380947  2.458361
C    0.048927  -1.583184  0.599020
C    -1.309756  -2.316542  0.686739
N    -2.200751  -2.141956  -0.449402
C    -1.329672  -3.800800  0.773152
C    -2.631394  -3.319692  -0.845575
N    -2.110720  -4.359525  -0.114756
H    0.763560  -2.126532  -0.030500
H    -0.126176  -0.597078  0.143783
H    -0.789755  -4.396352  1.510198
H    -3.336353  -3.458126  -1.664908
H    -2.496787  -1.246413  -0.836749
O    2.960000  -1.246961  1.465060
H    -1.782546  -1.887746  1.613742
Pb    4.336447  0.522925  2.000832
