21
Energy: -605076.971255 eV PBE+vdW (tier 2 basis)
N    0.605852  1.572080  1.037193
C    0.005069  0.245931  1.467402
C    0.885305  -0.775975  0.717905
O    1.500609  -0.435534  -0.273935
H    1.095868  1.342754  0.131937
H    1.310992  1.919371  1.700303
H    0.119273  0.138476  2.552115
C    -1.489424  0.221298  1.054385
C    -2.200708  -1.081613  1.247279
N    -2.004817  -2.129462  0.357241
C    -3.146544  -1.431954  2.183494
C    -2.803514  -3.084247  0.740067
N    -3.554454  -2.725560  1.878289
H    -1.556857  0.477664  -0.015785
H    -2.009060  1.005286  1.623759
H    -3.558305  -0.876115  3.019864
H    -2.894801  -4.053393  0.255882
H    -0.093566  2.310744  0.892591
O    0.883606  -1.969581  1.290684
H    1.432636  -2.580908  0.754430
Pb    -5.207160  -3.925264  2.650903
