21
Energy: -605077.799994 eV PBE+vdW (tier 2 basis)
N    0.101820  0.482355  2.431487
C    0.330856  -0.215754  3.746181
C    1.725365  -0.791420  3.792499
O    2.376485  -0.986949  2.704485
H    0.357478  1.477977  2.450908
H    -0.933264  0.392699  2.218494
H    0.207896  0.518860  4.550745
C    -0.763384  -1.353775  3.909974
C    -2.111871  -0.843007  3.570107
N    -2.965058  -0.187624  4.436048
C    -2.753510  -0.772889  2.327945
C    -4.058127  0.206904  3.710356
N    -3.948062  -0.124477  2.435903
H    -0.684455  -1.728488  4.938447
H    -0.510642  -2.183433  3.234515
H    -2.444028  -1.237651  1.392604
H    -4.901193  0.722474  4.161598
H    -2.863510  -0.100805  5.443705
O    2.210787  -1.144593  4.919887
H    0.645203  0.027966  1.679748
Pb    4.153214  -1.950372  3.937363
