21
Energy: -605077.600617 eV PBE+vdW (tier 2 basis)
N    -0.553548  -2.136357  4.529926
C    -0.082520  -1.578061  3.274457
C    1.435788  -1.750841  3.173581
O    2.236521  -0.915345  3.733480
H    -2.874036  -1.260645  4.477501
H    -0.041814  -1.810055  5.350127
H    -0.521482  -2.163583  2.455419
C    -0.476781  -0.074914  3.123377
C    -1.946170  0.123622  3.124617
N    -2.653106  0.613192  2.129247
C    -2.939398  -0.191392  4.186691
C    -4.046810  0.626965  2.493421
N    -4.236231  0.167875  3.667023
H    -0.029409  0.337889  2.209069
H    -0.047477  0.479945  3.973376
H    -2.731084  0.344468  5.131062
H    -4.793199  1.001373  1.795086
H    -2.281432  0.941599  1.235175
O    1.908120  -2.799890  2.601152
H    -0.597635  -3.154485  4.529662
Pb    4.069702  -2.202364  3.116554
