21
Energy: -605077.586885 eV PBE+vdW (tier 2 basis)
N    -0.789508  -2.591523  2.821773
C    0.043617  -1.393781  2.800773
C    1.506814  -1.760150  3.058885
O    1.980240  -1.824782  4.252482
H    -2.215857  1.015854  1.731302
H    -0.694973  -3.139837  3.677593
H    0.006466  -0.973793  1.785861
C    -0.491821  -0.370418  3.824488
C    -1.928659  -0.054543  3.597416
N    -2.815888  0.117696  4.547075
C    -2.668187  0.199680  2.324373
C    -4.087640  0.474371  3.963363
N    -4.027721  0.528020  2.693595
H    0.070352  0.576845  3.741460
H    -0.334157  -0.734318  4.849931
H    -2.657340  -0.687348  1.665180
H    -4.951345  0.658782  4.599899
H    -2.641823  0.019944  5.550282
O    2.247636  -2.097617  2.063306
H    -0.639380  -3.199382  2.016776
Pb    4.037173  -2.535702  3.434188
