21
Energy: -605077.050813 eV PBE+vdW (tier 2 basis)
N    -0.629905  0.886451  0.106012
C    -0.123690  0.307458  1.326048
C    1.368091  -0.093460  1.160347
O    1.768684  -1.195083  0.794920
H    -0.545261  0.329234  -0.741048
H    -0.378768  1.859369  -0.055013
H    -0.138834  1.093537  2.092765
C    -1.018518  -0.840748  1.862197
C    -1.302715  -2.001039  0.964087
N    -0.300044  -2.753251  0.367618
C    -2.480428  -2.611105  0.612631
C    -0.832297  -3.763712  -0.310131
N    -2.186296  -3.720878  -0.181902
H    -1.978193  -0.390672  2.144262
H    -0.563384  -1.222495  2.790608
H    -3.495394  -2.336441  0.876784
H    -0.264267  -4.492739  -0.878665
H    0.698499  -2.418155  0.439494
O    2.164283  0.935965  1.407173
H    3.099290  0.686012  1.243622
Pb    -3.639854  -5.297251  -0.930809
