21
Energy: -605077.323665 eV PBE+vdW (tier 2 basis)
N    -0.158602  -0.012944  -0.021661
C    0.020677  -0.501081  1.395528
C    1.541531  -0.666099  1.574006
O    2.280858  -0.698043  0.613796
H    0.634155  -0.399579  -0.573527
H    -1.105650  -0.326658  -0.373323
H    -0.372686  0.262068  2.078248
C    -0.700803  -1.850964  1.603873
C    -2.163255  -1.818511  1.286274
N    -2.612527  -1.208039  0.115355
C    -3.233125  -2.367101  1.949326
C    -3.908419  -1.387022  0.074455
N    -4.365884  -2.105056  1.182622
H    -0.539898  -2.159478  2.644076
H    -0.212824  -2.614901  0.973888
H    -3.274291  -2.912086  2.886481
H    -4.563213  -1.020898  -0.711861
H    -0.090218  1.010136  -0.082104
O    1.871079  -0.794474  2.855527
H    2.840632  -0.923844  2.932204
Pb    -6.426535  -2.823427  1.440818
