21
Energy: -605077.026693 eV PBE+vdW (tier 2 basis)
N    -0.450106  0.828856  0.737722
C    0.184102  0.146898  1.821889
C    1.743576  0.169298  1.797122
O    2.442764  -0.497071  2.550820
H    -0.428342  1.844988  0.760866
H    -0.292007  0.462734  -0.198955
H    -0.079851  0.679044  2.751639
C    -0.355707  -1.318421  1.909216
C    -0.285017  -1.978810  3.246487
N    0.883760  -2.066095  3.988574
C    -1.237423  -2.641229  3.980204
C    0.659064  -2.739493  5.111067
N    -0.644230  -3.122274  5.147605
H    0.162701  -1.945971  1.166659
H    -1.409176  -1.279209  1.607686
H    -2.283777  -2.805315  3.749413
H    1.407736  -2.937261  5.871042
H    1.748129  -1.574849  3.647916
O    2.225869  1.006789  0.892742
H    3.206692  1.009701  0.937056
Pb    -1.597368  -4.424549  6.756732
