11
Energy: -94930.9218593 eV PBE+vdW (tier 2 basis)
N    0.635712  -0.423222  0.063547
C    0.291879  0.055108  1.433831
C    1.475503  -0.091117  2.375507
O    2.598861  -0.408617  1.937400
H    0.137235  -1.304610  -0.102273
H    0.217578  0.220921  -0.615781
H    0.021976  1.122684  1.406350
H    -0.582167  -0.472274  1.845451
O    1.350601  0.135923  3.650684
H    0.445127  0.373286  3.941406
Sr    3.262698  -0.835083  -0.218123
