30
Energy:  -45056.4016806  eV PBE+vdW (tier 2 basis)
 C   -2.63751   -1.33632    0.26483
 C   -1.23179   -1.01567    0.62745
 O   -0.26304   -1.37143   -0.12661
 H   -2.89086   -0.94458   -0.72954
 H   -3.36766   -1.00435    1.00966
 H   -2.69743   -2.43376    0.18149
 N   -0.94285   -0.35809    1.77439
 C   -1.62444    0.87601    2.16136
 C   -1.07788    2.00287    1.26266
 O   -0.30377    1.72942    0.27446
 H    0.04502   -0.39667    2.03402
 H   -2.70985    0.74718    1.94730
 C   -1.55205    1.10894    3.67584
 C   -2.36780    0.04274    4.42967
 S   -4.06927   -0.17442    3.82859
 C   -4.90548    1.28533    4.51108
 H   -1.95270    2.10511    3.91367
 H   -0.50646    1.11109    4.02418
 H   -2.38457    0.27495    5.50235
 H   -1.90247   -0.94686    4.32653
 H   -5.95911    1.18623    4.22627
 H   -4.52152    2.22824    4.10464
 H   -4.83425    1.28287    5.60473
 N   -1.44974    3.24760    1.49332
 C   -1.04921    4.40599    0.68772
 H   -2.06131    3.41731    2.28733
 H   -1.39299    4.28963   -0.34681
 H    0.04077    4.52217    0.70200
 H   -1.50888    5.29883    1.11877
Ca    0.74582    0.33197   -0.96163
