30
Energy:  -45056.9696509  eV PBE+vdW (tier 2 basis)
 C    0.85473    0.92957    0.40612
 C    0.28182   -0.14262    1.26177
 O    1.01180   -0.91493    1.94687
 H    1.57643    1.53245    0.97060
 H    0.10233    1.56813   -0.06549
 H    1.42644    0.42932   -0.39270
 N   -1.06994   -0.33886    1.32520
 C   -2.06827    0.70860    1.51729
 C   -1.57363    1.68468    2.61360
 O   -0.69975    1.29188    3.44944
 H   -1.31934   -1.24089    1.72951
 H   -2.21861    1.26502    0.58308
 C   -3.43078    0.06616    1.92466
 C   -3.40525   -1.25981    2.69804
 S   -2.52403   -1.26194    4.31972
 C   -2.89802   -2.94450    4.89947
 H   -3.99612   -0.13832    1.00470
 H   -4.01342    0.80919    2.48407
 H   -3.02115   -2.09064    2.08674
 H   -4.44469   -1.51841    2.94129
 H   -2.41274   -3.05886    5.87553
 H   -2.52753   -3.70340    4.20253
 H   -3.98166   -3.03578    5.03353
 N   -2.06540    2.91017    2.68711
 C   -3.07912    3.56276    1.85397
 H   -1.70488    3.45900    3.46947
 H   -4.05064    3.56408    2.36498
 H   -3.18135    3.06289    0.88714
 H   -2.77205    4.59907    1.67775
Ca    0.24527   -0.60051    4.01356
