30
Energy:  -45056.0463866  eV PBE+vdW (tier 2 basis)
 C   -1.00591    0.45923   -0.10969
 C   -0.58568    0.24608    1.30113
 O    0.60938    0.54295    1.65444
 H   -0.66998   -0.38159   -0.73865
 H   -0.47627    1.34748   -0.47849
 H   -2.08735    0.57952   -0.25210
 N   -1.41123   -0.23416    2.26502
 C   -2.23115   -1.45295    2.18583
 C   -1.24587   -2.66230    2.18552
 O    0.01871   -2.47654    2.12256
 H   -1.02668   -0.08297    3.19859
 H   -2.78944   -1.48733    3.13460
 C   -3.24582   -1.51233    1.02949
 C   -4.23903   -0.33988    1.03701
 S   -4.72430   -0.03809   -0.69296
 C   -5.92390    1.30370   -0.48345
 H   -3.80344   -2.45591    1.10796
 H   -2.71598   -1.57002    0.06792
 H   -3.78380    0.56891    1.45861
 H   -5.11876   -0.58314    1.64899
 H   -6.26167    1.56004   -1.49409
 H   -5.46341    2.18709   -0.02626
 H   -6.78647    0.96736    0.10277
 N   -1.74775   -3.87678    2.26532
 C   -0.95825   -5.11419    2.28647
 H   -2.75991   -3.96855    2.31741
 H   -1.64887   -5.96078    2.30935
 H   -0.32229   -5.14539    3.17919
 H   -0.33552   -5.18185    1.38719
Ca    1.75339   -1.20399    2.11892
