30
Energy:  -45056.1133400  eV PBE+vdW (tier 2 basis)
 C   -0.06738    0.37091   -0.25248
 C   -0.00882    0.11742    1.21333
 O    1.11215   -0.01869    1.80753
 H    0.33024    1.36857   -0.49160
 H   -1.07165    0.26497   -0.67163
 H    0.60515   -0.34985   -0.73997
 N   -1.14095    0.03346    1.94764
 C   -2.22357    1.02027    1.86946
 C   -1.62975    2.39121    2.25123
 O   -0.47324    2.44835    2.81587
 H   -0.99525   -0.33251    2.89080
 H   -2.60955    1.06082    0.84015
 C   -3.36059    0.59721    2.83187
 C   -4.05922   -0.70161    2.39430
 S   -5.17389   -1.36367    3.65680
 C   -6.61868   -0.28051    3.49239
 H   -4.09366    1.41070    2.90058
 H   -2.94494    0.47631    3.84555
 H   -4.60099   -0.55261    1.44758
 H   -3.32547   -1.50225    2.22306
 H   -6.40854    0.75253    3.79374
 H   -7.02287   -0.31810    2.47367
 H   -7.36822   -0.69035    4.17954
 N   -2.29663    3.50959    2.02544
 C   -3.60119    3.69461    1.38414
 H   -1.84276    4.35523    2.37305
 H   -3.55102    4.58369    0.74649
 H   -4.38121    3.84615    2.14128
 H   -3.85969    2.83433    0.76118
Ca    1.45690    1.60600    3.18689
