30
Energy:  -45056.3606117  eV PBE+vdW (tier 2 basis)
 C    0.61220   -1.02045    0.67921
 C   -0.27665    0.18621    0.68165
 O    0.01687    1.23113    0.07677
 H    0.87672   -1.26738   -0.35605
 H    0.17484   -1.89793    1.16729
 H    1.54869   -0.75933    1.19207
 N   -1.45197    0.09296    1.38355
 C   -2.33103    1.21169    1.73542
 C   -3.02938    1.88251    0.54576
 O   -4.25973    2.25702    0.71034
 H   -1.66143   -0.79442    1.82863
 H   -3.14589    0.75365    2.31250
 C   -1.62561    2.26955    2.64602
 C   -2.42959    2.81169    3.82869
 S   -3.71571    4.10836    3.58437
 C   -2.79412    5.49101    2.84273
 H   -1.19155    3.07868    2.04487
 H   -0.76367    1.75610    3.09693
 H   -1.74629    3.27313    4.55531
 H   -2.96162    2.01463    4.36839
 H   -3.48517    6.33969    2.77826
 H   -2.39743    5.24575    1.85251
 H   -1.98045    5.76008    3.52641
 N   -2.36693    2.09837   -0.55562
 C   -2.89446    2.70916   -1.76977
 H   -1.33548    1.82825   -0.48529
 H   -3.98535    2.63552   -1.79565
 H   -2.47413    2.18388   -2.63396
 H   -2.58988    3.76302   -1.82827
Ca   -5.64168    3.30739    1.78461
