30
Energy:  -45057.1265798  eV PBE+vdW (tier 2 basis)
 C   -1.21258    0.22905    0.59402
 C   -0.63206    0.28966    1.96747
 O    0.44558    0.95459    2.17606
 H   -1.45867    1.25155    0.27315
 H   -2.11160   -0.39310    0.54285
 H   -0.46259   -0.15259   -0.11109
 N   -1.26050   -0.34666    2.94759
 C   -0.98387   -0.26355    4.39049
 C    0.25203   -1.10640    4.77823
 O    1.40469   -0.73144    4.37780
 H   -2.16125   -0.85355    2.72248
 H   -0.66593    0.77003    4.61246
 C   -2.28799   -0.51753    5.17824
 C   -3.11335   -1.78423    4.87581
 S   -3.90000   -1.89313    3.22160
 C   -5.21550   -0.64914    3.35044
 H   -2.92678    0.36318    5.02219
 H   -2.04361   -0.49376    6.25208
 H   -3.90562   -1.87509    5.63088
 H   -2.53116   -2.71629    4.93470
 H   -4.82702    0.36542    3.49289
 H   -5.90375   -0.91811    4.15960
 H   -5.75727   -0.69232    2.39851
 N    0.12753   -2.16654    5.55009
 C    1.24517   -2.99863    6.00837
 H   -0.80791   -2.42596    5.85018
 H    0.87219   -3.68727    6.77060
 H    2.03010   -2.36819    6.43990
 H    1.66038   -3.57432    5.17206
Ca    2.29874    0.73622    3.11291
