30
Energy:  -45057.1014432  eV PBE+vdW (tier 2 basis)
C    -1.349802  -0.709818  0.400342
C    -0.871042  -0.944015  1.793425
O    0.226550  -1.575842  1.995289
H    -0.577160  -0.147907  -0.143690
H    -2.292103  -0.154226  0.365624
H    -1.469634  -1.669901  -0.119079
N    -1.599635  -0.477828  2.802153
C    -1.199093  -0.406022  4.217345
C    -1.349390  -1.782526  4.905627
O    -0.521401  -2.706896  4.604662
H    -2.454571  0.092096  2.566588
H    -0.112112  -0.220088  4.248313
C    -1.888055  0.795650  4.901089
C    -3.404011  0.974830  4.692850
S    -3.731431  1.708017  3.043357
C    -5.530323  1.526798  2.922645
H    -1.379365  1.705649  4.549509
H    -1.662350  0.748136  5.976820
H    -3.796638  1.653257  5.461129
H    -3.970036  0.031321  4.765169
H    -5.812621  1.961115  1.956871
H    -6.016568  2.097666  3.721681
H    -5.836071  0.475052  2.951994
N    -2.291967  -1.971304  5.806971
C    -2.527362  -3.202717  6.562746
H    -2.912424  -1.187405  5.997634
H    -3.486299  -3.643455  6.262931
H    -2.560669  -2.967074  7.632627
H    -1.719690  -3.910082  6.365518
Ca    1.032272  -3.087480  3.191859
