30
Energy:  -45057.0650901  eV PBE+vdW (tier 2 basis)
 C    0.60651    1.66411    0.03942
 C    0.42334    1.03445    1.37385
 O    1.31309    1.09678    2.27083
 H    0.86239    2.72613    0.14684
 H   -0.25049    1.54122   -0.62884
 H    1.48129    1.18360   -0.42705
 N   -0.72346    0.35721    1.67590
 C   -2.08361    0.82290    1.39623
 C   -2.20552    2.30125    1.83414
 O   -1.41371    2.74417    2.72703
 H   -0.64905   -0.19193    2.53374
 H   -2.30111    0.71916    0.32542
 C   -3.07776   -0.05858    2.19392
 C   -3.22910    0.21562    3.69744
 S   -1.78504    0.05902    4.82843
 C   -1.40251   -1.71985    4.83074
 H   -2.81177   -1.10879    2.00589
 H   -4.07867    0.07112    1.75691
 H   -3.98841   -0.46254    4.10936
 H   -3.58945    1.23523    3.89273
 H   -2.28377   -2.25945    5.19513
 H   -0.58174   -1.86020    5.54336
 H   -1.10294   -2.09513    3.84606
 N   -3.14287    3.08131    1.32301
 C   -4.16014    2.77918    0.31208
 H   -3.16491    4.02392    1.71659
 H   -5.13692    2.62716    0.78877
 H   -3.89504    1.88771   -0.26233
 H   -4.23254    3.62721   -0.37731
Ca    0.19757    1.94576    3.99509
