30
Energy:  -45056.3761054  eV PBE+vdW (tier 2 basis)
 C   -2.04950   -1.54261    0.08699
 C   -0.80257   -1.07916    0.75162
 O    0.34638   -1.38628    0.28388
 H   -2.07823   -1.23434   -0.96677
 H   -2.96134   -1.23121    0.60799
 H   -2.01003   -2.64403    0.07851
 N   -0.85961   -0.33766    1.88281
 C   -1.70049    0.85193    1.98562
 C   -1.01361    1.97664    1.18078
 O    0.01945    1.72392    0.46088
 H    0.02893   -0.27479    2.38430
 H   -2.66538    0.62416    1.48607
 C   -2.04901    1.17099    3.45020
 C   -3.03965    0.14974    4.01454
 S   -4.54596    0.14683    2.98501
 C   -5.42223   -1.29778    3.64249
 H   -2.49354    2.17484    3.51695
 H   -1.13474    1.20054    4.06318
 H   -3.29368    0.42142    5.04714
 H   -2.60124   -0.85914    4.02789
 H   -6.35037   -1.37624    3.06558
 H   -5.67119   -1.14155    4.69781
 H   -4.83573   -2.21456    3.51497
 N   -1.53231    3.18797    1.20951
 C   -1.02099    4.33911    0.45785
 H   -2.36042    3.33270    1.78260
 H   -1.61346    5.21623    0.72965
 H   -1.11362    4.16381   -0.62076
 H    0.02913    4.52237    0.71187
Ca    1.43130    0.34983   -0.37461
