30
Energy:  -45056.2430472  eV PBE+vdW (tier 2 basis)
 C   -2.04269    1.02152   -0.39044
 C   -0.97447    1.13191    0.64591
 O    0.04362    1.87690    0.44389
 H   -3.04127    1.09069    0.05627
 H   -1.98166    0.05530   -0.91605
 H   -1.91086    1.81827   -1.12863
 N   -1.04249    0.44065    1.80584
 C   -1.35665   -0.99315    1.89606
 C   -0.38554   -1.75093    0.97880
 O    0.65307   -1.16046    0.50379
 H   -0.39157    0.76740    2.52052
 H   -1.09169   -1.24037    2.95220
 C   -2.84697   -1.36037    1.83241
 C   -3.62733   -0.61343    2.92948
 S   -2.86765   -0.68630    4.58051
 C   -3.31680   -2.35704    5.13249
 H   -2.94348   -2.44252    2.01242
 H   -3.28852   -1.17091    0.84461
 H   -4.65583   -0.99301    2.98150
 H   -3.69139    0.45841    2.69714
 H   -2.92378   -2.44876    6.15146
 H   -2.87321   -3.14577    4.51436
 H   -4.40737   -2.46126    5.16512
 N   -0.58839   -3.03250    0.73609
 C    0.32357   -3.89668   -0.02045
 H   -1.43168   -3.45494    1.11497
 H    0.41610   -3.54361   -1.05431
 H   -0.08825   -4.90894   -0.02502
 H    1.31306   -3.91326    0.45110
Ca    1.76803    0.62887    0.13324
