30
Energy:  -45057.1101350  eV PBE+vdW (tier 2 basis)
C    1.468809  -2.822420  1.755180
C    0.828618  -1.656318  2.430774
O    1.548294  -0.758259  2.978461
H    2.152880  -3.324480  2.451565
H    2.082099  -2.446469  0.923136
H    0.748532  -3.548848  1.365350
N    -0.505568  -1.566683  2.437324
C    -1.314358  -0.410763  2.873870
C    -1.411298  -0.373845  4.417897
O    -0.368637  0.030106  5.055895
H    -1.016301  -2.323472  1.987013
H    -0.723396  0.486384  2.630687
C    -2.593836  -0.318945  2.015620
C    -3.565328  -1.514733  1.977669
S    -4.917581  -1.280870  3.185099
C    -5.686394  -2.921970  3.201182
H    -2.242758  -0.127251  0.991446
H    -3.133268  0.594652  2.307324
H    -3.074388  -2.480187  2.184537
H    -4.005753  -1.590431  0.976014
H    -6.525304  -2.855507  3.903197
H    -4.987728  -3.695207  3.539688
H    -6.077832  -3.158563  2.205552
N    -2.501310  -0.722518  5.047200
C    -2.654031  -0.675186  6.501272
H    -3.358350  -1.015604  4.491300
H    -3.707022  -0.855470  6.735153
H    -2.357622  0.306787  6.887477
H    -2.040956  -1.449156  6.980090
Ca    1.680789  0.398225  4.747028
