30
Energy:  -45056.3839173  eV PBE+vdW (tier 2 basis)
 C    0.27222    0.63888    1.08230
 C   -0.29484   -0.47500    1.89783
 O    0.46475   -1.41116    2.31799
 H   -0.03251    0.54466    0.02790
 H    1.36422    0.59775    1.12995
 H   -0.07613    1.61609    1.43526
 N   -1.61236   -0.53701    2.20279
 C   -2.69909   -0.32364    1.23100
 C   -2.50172   -1.37799    0.08967
 O   -1.57419   -2.26821    0.20283
 H   -1.81716   -1.25341    2.89931
 H   -3.60845   -0.63847    1.76563
 C   -2.90830    1.16202    0.82457
 C   -4.37070    1.60252    0.66144
 S   -5.04404    1.19925   -0.99207
 C   -6.82784    1.16097   -0.66641
 H   -2.33152    1.41714   -0.07565
 H   -2.48883    1.75850    1.64593
 H   -4.42773    2.69031    0.79202
 H   -5.00754    1.14344    1.43119
 H   -7.30646    0.93228   -1.62520
 H   -7.16242    2.14876   -0.33122
 H   -7.08846    0.39118    0.06788
 N   -3.31681   -1.35853   -0.92762
 C   -3.29038   -2.31237   -2.03522
 H   -4.05414   -0.58500   -0.96438
 H   -4.01564   -1.98027   -2.78338
 H   -3.56787   -3.31591   -1.68859
 H   -2.29469   -2.34961   -2.49247
Ca    0.08828   -3.18469    1.15307
