30
Energy:  -45056.5060463  eV PBE+vdW (tier 2 basis)
 C    0.26235   -0.60017    0.28110
 C   -0.05397    0.45280    1.28508
 O    0.58337    1.55896    1.29468
 H    1.32813   -0.85827    0.34621
 H    0.09592   -0.19159   -0.72608
 H   -0.33894   -1.50683    0.40274
 N   -1.02351    0.24418    2.18503
 C   -1.46000    1.29739    3.11452
 C   -0.32021    1.63732    4.10254
 O    0.20221    2.80932    3.97373
 H   -1.55465   -0.62293    2.13680
 H   -1.51479    2.21437    2.50890
 C   -2.91444    1.12108    3.60378
 C   -3.33513   -0.01436    4.54154
 S   -3.15578    0.50275    6.27904
 C   -3.86344   -0.92972    7.13604
 H   -3.50740    1.05467    2.67818
 H   -3.20498    2.08038    4.05920
 H   -2.79403   -0.95609    4.35268
 H   -4.39760   -0.22307    4.35628
 H   -3.81154   -0.69672    8.20557
 H   -3.29309   -1.84566    6.94056
 H   -4.91369   -1.06354    6.85289
 N    0.22331    0.79420    4.96077
 C   -0.12293   -0.58158    5.30361
 H    0.96093    1.21770    5.52553
 H    0.76210   -1.05453    5.73872
 H   -0.41831   -1.14301    4.41284
 H   -0.95105   -0.56969    6.03430
Ca    1.17196    3.41042    2.18486
