30
Energy:  -45056.1279705  eV PBE+vdW (tier 2 basis)
 C   -0.30405    0.63572    0.04767
 C   -0.79857    0.87459    1.43235
 O   -0.67881    2.02502    1.97456
 H   -0.93636    1.15297   -0.68961
 H   -0.23399   -0.42416   -0.21264
 H    0.69268    1.09325   -0.02920
 N   -1.37923   -0.11563    2.14539
 C   -2.42560   -0.97612    1.59752
 C   -3.71967   -0.10447    1.49025
 O   -3.66697    1.15836    1.70177
 H   -1.48894    0.09358    3.13964
 H   -2.14612   -1.24667    0.56796
 C   -2.60745   -2.26534    2.42201
 C   -3.00966   -2.04001    3.88618
 S   -3.68981   -3.51562    4.69910
 C   -2.20141   -4.51953    4.95964
 H   -1.66757   -2.83004    2.35700
 H   -3.36015   -2.90417    1.93541
 H   -3.82671   -1.30324    3.96184
 H   -2.16568   -1.66077    4.48590
 H   -2.54415   -5.40052    5.51505
 H   -1.46791   -3.98516    5.57534
 H   -1.75312   -4.85862    4.01914
 N   -4.83869   -0.70946    1.15377
 C   -6.15023   -0.08492    0.96828
 H   -4.79667   -1.72095    1.03576
 H   -6.04730    1.00117    1.00171
 H   -6.83210   -0.41833    1.76063
 H   -6.55699   -0.38782   -0.00332
Ca   -2.60387    2.93817    2.25798
