30
Energy:  -45056.4705372  eV PBE+vdW (tier 2 basis)
 C   -1.08769   -1.45257    0.22819
 C   -0.39542   -0.74664    1.34321
 O    0.84052   -0.44367    1.25642
 H   -1.36831   -0.73830   -0.56238
 H   -1.98602   -1.98508    0.55465
 H   -0.38033   -2.15918   -0.22369
 N   -1.07244   -0.39132    2.45859
 C   -2.37312    0.27964    2.40459
 C   -2.17018    1.61942    1.63705
 O   -0.98285    2.06003    1.40465
 H   -0.47283   -0.07479    3.22293
 H   -3.07314   -0.32474    1.81035
 C   -2.92323    0.39988    3.84572
 C   -4.23018    1.17713    4.05463
 S   -5.58034    0.90448    2.85928
 C   -5.91000   -0.87305    3.01106
 H   -2.15390    0.86102    4.48774
 H   -3.04223   -0.63325    4.20132
 H   -4.06220    2.26239    4.01677
 H   -4.60379    0.96070    5.06444
 H   -6.77052   -1.07291    2.36243
 H   -6.18691   -1.10921    4.04488
 H   -5.07003   -1.49941    2.68848
 N   -3.24539    2.23669    1.21985
 C   -3.27137    3.50868    0.49808
 H   -4.15400    1.76495    1.46214
 H   -4.29851    3.88332    0.50353
 H   -2.95189    3.36787   -0.54255
 H   -2.61546    4.23898    0.98416
Ca    1.09723    1.69675    1.11735
