30
Energy:  -45057.0205269  eV PBE+vdW (tier 2 basis)
C    1.635563  -0.400909  1.184399
C    0.708694  -0.453385  2.350940
O    1.126021  -0.843221  3.490779
H    1.147992  -0.086223  0.256134
H    2.097997  -1.385821  1.037098
H    2.449775  0.300891  1.416749
N    -0.563420  -0.070302  2.190606
C    -1.545735  0.073774  3.283251
C    -2.035439  -1.318652  3.735019
O    -1.359037  -1.956758  4.617800
H    -0.842643  0.239571  1.262340
H    -0.996939  0.478393  4.147288
C    -2.640243  1.082868  2.907130
C    -3.306236  1.671123  4.157857
S    -3.798273  0.441043  5.407220
C    -5.390037  -0.135982  4.767609
H    -3.389559  0.634805  2.235062
H    -2.180714  1.904107  2.335184
H    -4.174653  2.284616  3.886391
H    -2.601954  2.334675  4.679276
H    -5.302719  -0.651002  3.802135
H    -6.087541  0.704797  4.678255
H    -5.783227  -0.839088  5.510838
N    -2.994920  -1.929433  3.057069
C    -3.489179  -3.271854  3.367385
H    -3.503156  -1.387813  2.365008
H    -2.681575  -4.007531  3.281975
H    -4.278458  -3.524086  2.654720
H    -3.894728  -3.300368  4.386932
Ca    0.654342  -1.952233  5.238550
