30
Energy:  -45056.4541598  eV PBE+vdW (tier 2 basis)
 C    0.21920    0.46768    0.35724
 C   -0.15299   -0.59724    1.33035
 O    0.73868   -1.45444    1.71326
 H    1.05783    1.05529    0.75489
 H   -0.61544    1.13768    0.12952
 H    0.56727   -0.00206   -0.57372
 N   -1.38164   -0.66196    1.79191
 C   -1.99608   -1.69683    2.61936
 C   -3.47612   -1.69854    2.09142
 O   -3.85782   -0.69555    1.48525
 H   -2.14170   -0.06665    1.39587
 H   -1.49990   -2.66102    2.43119
 C   -2.00479   -1.34656    4.12282
 C   -0.67465   -1.02689    4.80105
 S    0.55864   -2.36798    5.02050
 C   -0.26591   -3.64066    6.01717
 H   -2.52672   -2.14972    4.66200
 H   -2.63301   -0.45092    4.25746
 H   -0.85726   -0.65024    5.81681
 H   -0.11564   -0.24096    4.27476
 H    0.49529   -4.38715    6.27043
 H   -1.09005   -4.11319    5.47544
 H   -0.61950   -3.17009    6.94167
 N   -4.22641   -2.77163    2.37644
 C   -5.63817   -2.88522    2.00148
 H   -3.79902   -3.56159    2.84760
 H   -6.25206   -3.05447    2.89374
 H   -5.77869   -3.71569    1.29951
 H   -5.94258   -1.95115    1.52246
Ca    1.89045   -2.81822    2.69548
