30
Energy:  -45056.2485187  eV PBE+vdW (tier 2 basis)
 C    0.19375   -0.14093    0.29506
 C    0.01940   -0.13647    1.77824
 O    1.05748   -0.28763    2.53892
 H    0.96599    0.58114   -0.00065
 H   -0.73509    0.08085   -0.23939
 H    0.54568   -1.13661   -0.01273
 N   -1.18588    0.02112    2.27507
 C   -1.68705    0.00513    3.65098
 C   -3.13936    0.56396    3.46677
 O   -3.41555    1.07655    2.37550
 H   -1.97192    0.33731    1.66127
 H   -1.73464   -1.04054    3.99249
 C   -0.84833    0.80002    4.67763
 C   -0.39032    2.19340    4.21963
 S    1.30439    2.48476    4.86360
 C    1.72820    4.13690    4.23145
 H    0.01625    0.17331    4.95099
 H   -1.42451    0.88669    5.60615
 H   -1.02441    2.98974    4.62715
 H   -0.37743    2.29826    3.12803
 H    2.74701    4.35765    4.56999
 H    1.04197    4.85912    4.68772
 H    1.66612    4.18302    3.13945
 N   -4.01185    0.46793    4.48071
 C   -3.88262   -0.22055    5.76194
 H   -4.91908    0.87958    4.26668
 H   -4.84660   -0.67484    6.01474
 H   -3.60720    0.46928    6.57206
 H   -3.14711   -1.03056    5.70595
Ca    2.64908    0.37632    3.64731
