30
Energy:  -45057.1692179  eV PBE+vdW (tier 2 basis)
 C   -0.31869    0.02994   -0.36760
 C   -0.18709    0.07034    1.11375
 O    0.93463   -0.03046    1.68558
 H    0.38695    0.72288   -0.84165
 H   -1.33623    0.20402   -0.72877
 H   -0.01580   -0.98248   -0.68233
 N   -1.29154    0.22161    1.90768
 C   -2.36948    1.18451    1.67816
 C   -1.74138    2.54009    1.26934
 O   -0.57360    2.83147    1.67093
 H   -1.17123   -0.09943    2.87050
 H   -3.04752    0.82840    0.88830
 C   -3.18488    1.34508    2.98614
 C   -2.55203    2.14704    4.13166
 S   -1.02259    1.40260    4.84601
 C   -0.86875    2.28138    6.43022
 H   -3.46970    0.33900    3.32809
 H   -4.12704    1.85278    2.73471
 H   -3.26836    2.16919    4.96347
 H   -2.33994    3.18502    3.84438
 H   -0.80168    3.36365    6.28014
 H    0.04191    1.90625    6.91108
 H   -1.73150    2.02456    7.05472
 N   -2.47902    3.36242    0.54399
 C   -2.09538    4.71326    0.12553
 H   -3.39575    3.03258    0.24734
 H   -2.18611    4.79496   -0.96367
 H   -1.06221    4.90204    0.42478
 H   -2.75850    5.44970    0.59595
Ca    0.98034    1.83992    2.89149
