30
Energy:  -45055.9430209  eV PBE+vdW (tier 2 basis)
 C    0.16461   -0.60666   -0.02389
 C    0.13112   -0.06172    1.36366
 O    1.20643    0.36241    1.90929
 H   -0.69497   -0.27508   -0.61570
 H    0.14960   -1.70830   -0.00739
 H    1.09524   -0.28980   -0.50503
 N   -1.01002   -0.00657    2.09061
 C   -1.96569   -1.11328    2.23565
 C   -1.20055   -2.29264    2.89751
 O    0.02308   -2.16099    3.25773
 H   -0.91350    0.56870    2.92823
 H   -2.69277   -0.75743    2.98435
 C   -2.78169   -1.47262    0.96004
 C   -4.21798   -1.94608    1.24514
 S   -5.24385   -2.01480   -0.24809
 C   -4.72270   -3.58704   -0.98606
 H   -2.24884   -2.21134    0.34683
 H   -2.86187   -0.55226    0.36706
 H   -4.72600   -1.23053    1.90906
 H   -4.26979   -2.93318    1.73874
 H   -3.67392   -3.57870   -1.30600
 H   -5.34968   -3.71023   -1.87700
 H   -4.92011   -4.42659   -0.30782
 N   -1.84789   -3.42017    3.10317
 C   -1.28797   -4.60654    3.75930
 H   -2.82028   -3.45960    2.79648
 H   -2.06169   -5.37765    3.79088
 H   -0.97921   -4.36627    4.78354
 H   -0.42710   -4.98408    3.19539
Ca    1.82869   -1.01101    3.43771
