28
Energy: -172796.564675 eV PBE+vdW (tier 2 basis)
N    -0.828974  0.612217  0.350343
C    -0.153947  0.007718  1.436967
C    1.417372  0.400264  1.404289
O    1.793433  1.196676  2.304418
H    -1.169968  1.559399  0.496871
H    -0.442313  0.483984  -0.581978
H    -0.519746  0.450469  2.369668
C    -0.289718  -1.527261  1.559787
C    -0.144197  -2.379679  0.269658
C    -1.375229  -2.413749  -0.584400
C    0.093057  -3.855704  0.521337
N    -1.748617  -3.648308  -0.779554
C    -0.905145  -4.586856  -0.142127
C    1.062535  -4.542513  1.236684
C    -0.996608  -5.973438  -0.138213
C    0.994851  -5.942986  1.263045
C    -0.013528  -6.645919  0.588802
H    -1.273189  -1.718467  2.012284
H    0.452339  -1.886352  2.285049
H    -1.936336  -1.579904  -0.998471
H    -2.565257  -3.913275  -1.336418
H    1.861521  -4.023984  1.765609
H    -1.783509  -6.508969  -0.667638
H    1.745478  -6.500729  1.821265
H    -0.031484  -7.733513  0.632842
O    2.148623  -0.065894  0.494006
H    0.685183  -1.967281  -0.341682
Cd    3.867375  1.266056  1.403554
