28
Energy: -172796.521323 eV PBE+vdW (tier 2 basis)
N    -0.306864  -0.488790  -0.018701
C    -0.581658  -0.322202  1.338844
C    0.358230  0.664790  2.081785
O    0.494134  0.654018  3.294347
H    -0.979623  -0.215710  -0.724352
H    0.632158  -0.683200  -0.348361
H    -1.585353  0.118776  1.446923
C    -0.595658  -1.715818  2.156794
C    -0.900874  -1.528255  3.584950
C    0.085990  -1.454522  4.666332
C    -2.137192  -1.116789  4.176413
N    -0.507652  -0.990192  5.762640
C    -1.876904  -0.777265  5.530874
C    -3.447179  -0.980266  3.671024
C    -2.854108  -0.319512  6.394081
C    -4.441905  -0.515760  4.526362
C    -4.152186  -0.193558  5.862078
H    0.372421  -2.208631  2.001459
H    -1.369917  -2.307280  1.656193
H    1.163549  -1.573365  4.599848
H    -0.032062  -0.804617  6.644071
H    -3.685960  -1.244838  2.640921
H    -2.644740  -0.056898  7.430326
H    -5.461238  -0.403550  4.160878
H    -4.951944  0.164485  6.509626
O    0.932712  1.527793  1.260547
H    1.476751  2.168140  1.769111
Cd    -0.406059  -4.295459  4.625599
