28
Energy: -172796.148221 eV PBE+vdW (tier 2 basis)
N    -0.198694  -0.040613  -0.034325
C    -0.119791  0.015698  1.344171
C    1.283333  0.187395  1.927995
O    1.465127  0.569864  3.058837
H    -0.928564  0.465212  -0.525075
H    0.607123  -0.322754  -0.583681
H    -0.766283  0.804996  1.748488
C    -0.797883  -1.318013  2.192935
C    0.016004  -2.513137  2.240014
C    0.059228  -3.540905  1.201185
C    1.107347  -2.817780  3.118725
N    1.132599  -4.310681  1.402267
C    1.790332  -3.942355  2.585813
C    1.582522  -2.225938  4.309546
C    2.904826  -4.502115  3.182327
C    2.714224  -2.774279  4.918193
C    3.358021  -3.890529  4.372062
H    -1.755594  -1.450489  1.681719
H    -0.947082  -0.876945  3.184681
H    -0.499822  -3.571164  0.268290
H    1.413713  -5.082932  0.799754
H    1.079938  -1.368026  4.753280
H    3.422975  -5.364311  2.763678
H    3.096446  -2.332043  5.836718
H    4.231723  -4.304860  4.874135
O    2.235548  -0.180239  1.053494
H    3.114348  -0.004263  1.449932
Cd    -2.126867  -4.759192  2.673220
