28
Energy: -172796.743045 eV PBE+vdW (tier 2 basis)
N    -1.146570  0.314560  0.967551
C    -0.270051  0.942716  1.883326
C    1.167236  1.265507  1.196283
O    1.889386  0.306328  0.828921
H    -0.838345  -0.572913  0.572940
H    -1.590697  0.913020  0.274587
H    -0.665175  1.932494  2.141661
C    0.015748  0.110436  3.145617
C    -1.178748  0.038890  4.140964
C    -2.389948  -0.696886  3.658766
C    -0.862647  -0.693071  5.429228
N    -2.700543  -1.641338  4.504012
C    -1.817385  -1.707141  5.606957
C    0.126262  -0.526378  6.387787
C    -1.848514  -2.572568  6.693439
C    0.123166  -1.387973  7.494566
C    -0.843593  -2.391499  7.645397
H    0.853744  0.563819  3.691612
H    0.333982  -0.903538  2.865582
H    -2.978001  -0.505340  2.765523
H    -3.510170  -2.257261  4.395016
H    0.883513  0.252349  6.303352
H    -2.610426  -3.342754  6.805863
H    0.889306  -1.271720  8.259807
H    -0.814333  -3.038318  8.520562
O    1.445641  2.485753  1.053187
H    -1.507691  1.074403  4.363361
Cd    3.368852  1.885424  -0.008869
