28
Energy: -172797.909003 eV PBE+vdW (tier 2 basis)
N    -1.531098  -0.954794  1.745859
C    -0.119031  -1.429126  1.747162
C    -0.119345  -2.900207  2.159616
O    -0.988889  -3.411831  2.884136
H    -2.020251  -1.283200  0.905720
H    -1.552821  0.068052  1.699775
H    0.311315  -1.358844  0.737560
C    0.772832  -0.589282  2.726900
C    0.748749  -0.983944  4.179220
C    1.792949  -1.649716  4.819210
C    -0.279746  -0.843711  5.162853
N    1.457150  -1.931836  6.107528
C    0.188259  -1.469333  6.363309
C    -1.599593  -0.252775  5.197034
C    -0.564868  -1.527620  7.532248
C    -2.359176  -0.337011  6.407605
C    -1.853929  -0.974198  7.535839
H    0.495667  0.468111  2.590887
H    1.803792  -0.670457  2.360349
H    2.768636  -1.922608  4.427259
H    2.068726  -2.380160  6.784110
H    -1.845512  0.562074  4.504924
H    -0.164534  -1.992060  8.434261
H    -3.327106  0.161532  6.451812
H    -2.450498  -1.013300  8.445438
O    0.911029  -3.563991  1.697876
H    0.891789  -4.501421  1.993160
Cd    -2.375495  -1.830345  3.739349
