28
Energy: -172796.347648 eV PBE+vdW (tier 2 basis)
N    1.273684  0.309837  1.142863
C    0.100993  0.280287  2.080589
C    0.453820  0.841612  3.483105
O    1.369817  1.782597  3.608154
H    1.888226  -0.496035  1.305550
H    0.962967  0.254604  0.167642
H    -0.624331  1.002045  1.669640
C    -0.627198  -1.093744  2.125056
C    0.088076  -2.258517  2.751134
C    0.958765  -3.144436  2.084157
C    -0.059402  -2.776984  4.052847
N    1.356952  -4.130955  2.919166
C    0.745084  -3.948551  4.145641
C    -0.864792  -2.380874  5.224249
C    0.818901  -4.728438  5.287497
C    -0.749524  -3.260722  6.402538
C    0.060439  -4.366451  6.429928
H    -0.908922  -1.345346  1.091996
H    -1.572383  -0.920399  2.654430
H    1.274297  -3.147674  1.043914
H    1.960792  -4.907924  2.666497
H    -1.937407  -2.266870  4.964824
H    1.445334  -5.622165  5.315200
H    -1.341635  -2.997540  7.279838
H    0.120971  -4.985595  7.323190
O    -0.169938  0.467557  4.462095
H    -0.619582  -1.338365  5.525014
Cd    2.380993  2.226048  1.833245
