28
Energy: -172796.285538 eV PBE+vdW (tier 2 basis)
N    -0.984866  0.104821  0.364153
C    -0.359063  -0.208032  1.588582
C    1.178995  -0.477059  1.377651
O    1.577094  -1.214361  0.513976
H    -1.222004  1.077579  0.192452
H    -0.628851  -0.379301  -0.460073
H    -0.484906  0.610758  2.305837
C    -0.880834  -1.585377  2.242777
C    -2.241031  -1.380292  2.745746
C    -2.591873  -1.030842  4.116998
C    -3.404028  -1.111896  1.975489
N    -3.835862  -0.537134  4.132421
C    -4.392504  -0.575716  2.845300
C    -3.678919  -1.222359  0.592547
C    -5.628176  -0.150550  2.400551
C    -4.917155  -0.770359  0.125947
C    -5.872063  -0.258755  1.010610
H    -0.182865  -1.865082  3.041532
H    -0.813334  -2.335284  1.443825
H    -1.932755  -0.940913  4.977830
H    -4.314790  -0.194194  4.963627
H    -2.975838  -1.705592  -0.082253
H    -6.382266  0.265442  3.067956
H    -5.156680  -0.846381  -0.933348
H    -6.840729  0.059087  0.625701
O    1.890178  0.208931  2.272481
H    2.846684  0.049696  2.115650
Cd    -2.696762  -3.896007  4.481483
