28
Energy: -172796.225404 eV PBE+vdW (tier 2 basis)
N    0.094064  -0.290726  1.235533
C    0.664432  0.288712  2.499373
C    2.208313  0.442169  2.433016
O    2.796251  0.709494  1.281246
H    0.184703  -1.313129  1.234446
H    -0.906189  -0.082444  1.158230
H    0.289681  1.324564  2.547256
C    0.169600  -0.410836  3.792871
C    0.557270  -1.844043  4.046048
C    1.869332  -2.348591  4.233625
C    -0.306488  -2.914048  4.322885
N    1.818494  -3.649521  4.577780
C    0.495882  -4.048628  4.655542
C    -1.781978  -3.045036  4.405784
C    -0.029604  -5.273506  5.010722
C    -2.276506  -4.395766  4.776138
C    -1.443419  -5.439805  5.060208
H    -0.925871  -0.324644  3.812084
H    0.529836  0.209517  4.626087
H    2.815357  -1.820216  4.161385
H    2.627407  -4.230520  4.782107
H    -2.286351  -2.728908  3.472825
H    0.622246  -6.111811  5.263863
H    -3.357408  -4.528867  4.832158
H    -1.850373  -6.409668  5.340995
O    2.869575  0.379272  3.454627
H    -2.191673  -2.330105  5.150134
Cd    1.518415  0.616093  -0.366971
