28
Energy: -172796.808614 eV PBE+vdW (tier 2 basis)
N    -0.219277  -0.535745  0.237833
C    0.388348  -1.077826  1.403437
C    0.824247  0.028225  2.474775
O    1.430900  1.056184  2.076941
H    -1.210570  -0.316635  0.314234
H    0.291092  0.224507  -0.211911
H    -0.334264  -1.715149  1.926397
C    1.658202  -1.879218  1.055179
C    1.323247  -3.060603  0.119864
C    0.703931  -2.701791  -1.191380
C    0.383769  -4.134572  0.625650
N    -0.309411  -3.494343  -1.437709
C    -0.578681  -4.380003  -0.369483
C    0.353878  -4.883712  1.792335
C    -1.575531  -5.343960  -0.269684
C    -0.648039  -5.857274  1.924624
C    -1.593094  -6.084359  0.913028
H    2.124125  -2.271905  1.968294
H    2.395001  -1.221011  0.572360
H    1.070173  -1.996630  -1.932748
H    -0.842533  -3.482659  -2.309424
H    1.088146  -4.740848  2.584557
H    -2.297928  -5.521583  -1.065258
H    -0.688068  -6.459173  2.831417
H    -2.349751  -6.855170  1.049402
O    0.536033  -0.216963  3.680150
H    2.296768  -3.528426  -0.142299
Cd    1.468288  1.766643  4.268420
