28
Energy: -172796.744445 eV PBE+vdW (tier 2 basis)
N    -1.195189  2.193885  2.256652
C    -0.130002  1.302894  2.490060
C    1.045580  1.495020  1.382490
O    2.099224  2.050881  1.789797
H    -1.096191  3.151851  2.581125
H    -1.706481  2.113558  1.380122
H    0.360733  1.561214  3.433966
C    -0.551821  -0.177574  2.452506
C    -1.605108  -0.512892  3.548099
C    -2.292171  -1.810365  3.283493
C    -1.138640  -0.691622  4.978189
N    -2.241310  -2.570542  4.342262
C    -1.555127  -1.960923  5.418179
C    -0.462188  0.127635  5.872794
C    -1.326309  -2.468802  6.690611
C    -0.208941  -0.360059  7.162938
C    -0.630012  -1.634063  7.565697
H    0.330841  -0.817941  2.580074
H    -0.973890  -0.395025  1.460635
H    -2.787923  -2.131257  2.369557
H    -2.664961  -3.500129  4.397414
H    -0.142011  1.133701  5.607135
H    -1.673716  -3.454917  6.996082
H    0.321667  0.271587  7.873976
H    -0.420305  -1.975300  8.577947
O    0.826277  1.124051  0.202954
H    -2.383786  0.278324  3.494530
Cd    2.903760  1.996807  -0.345285
