28
Energy: -172796.36434 eV PBE+vdW (tier 2 basis)
N    -2.680448  -0.527136  -0.076355
C    -2.477042  -0.469913  1.307720
C    -2.278856  0.946764  1.814475
O    -1.403299  1.671087  1.325408
H    -2.065092  0.008698  -0.683121
H    -3.009233  -1.400912  -0.474960
H    -3.305099  -0.971382  1.826590
C    -1.065833  -1.210471  1.816956
C    -0.548423  -0.938895  3.169582
C    0.763115  -0.339281  3.470725
C    -1.105701  -1.305100  4.410443
N    0.967223  -0.462234  4.828653
C    -0.147172  -0.998488  5.433814
C    -2.329302  -1.933616  4.769900
C    -0.380247  -1.272690  6.778910
C    -2.557974  -2.210375  6.100050
C    -1.595972  -1.878051  7.091209
H    -0.329180  -0.959978  1.044834
H    -1.324871  -2.274506  1.728003
H    1.624028  -0.434798  2.804215
H    1.840296  -0.249425  5.303064
H    -3.061065  -2.216860  4.013422
H    0.351934  -1.045276  7.552380
H    -3.480096  -2.701464  6.406431
H    -1.813439  -2.115316  8.132501
O    -2.888540  1.335971  2.923765
H    -3.625560  0.749131  3.184656
Cd    0.301359  1.958154  2.796962
