28
Energy: -172796.356214 eV PBE+vdW (tier 2 basis)
N    1.142474  0.473926  0.902808
C    1.006754  -0.385796  2.130935
C    2.218899  -0.307361  3.084532
O    3.435395  -0.093140  2.623638
H    0.591465  0.099295  0.122178
H    0.781548  1.417409  1.080355
H    0.157233  -0.003269  2.715623
C    0.735358  -1.850095  1.696526
C    0.756589  -2.896627  2.777579
C    1.524957  -4.075786  2.701714
C    0.037318  -2.980468  3.979685
N    1.301842  -4.849641  3.782721
C    0.388539  -4.214129  4.603926
C    -0.895473  -2.075333  4.685105
C    -0.143195  -4.632517  5.808022
C    -1.456055  -2.603097  5.951660
C    -1.086155  -3.808026  6.480798
H    1.479618  -2.132377  0.934010
H    -0.244371  -1.865772  1.189876
H    2.208020  -4.397798  1.920733
H    1.730624  -5.754141  3.957124
H    -1.715853  -1.716558  4.035971
H    0.149456  -5.588165  6.247049
H    -2.173681  -1.973214  6.478268
H    -1.506814  -4.149211  7.425005
O    2.024301  -0.523570  4.269734
H    -0.348882  -1.141684  4.948855
Cd    3.435090  0.598144  0.646567
