28
Energy: -172797.315334 eV PBE+vdW (tier 2 basis)
N    -0.874166  0.730047  0.579282
C    -0.266485  0.026420  1.782320
C    1.239510  -0.059864  1.448277
O    1.651204  0.273151  0.353490
H    -1.122084  1.692187  0.831630
H    -0.054483  0.806655  -0.073569
H    -0.399061  0.681473  2.654867
C    -0.847918  -1.371645  2.097548
C    -2.306015  -1.383483  2.477014
C    -2.851065  -1.011047  3.709994
C    -3.414921  -1.721124  1.653658
N    -4.208156  -1.082738  3.664554
C    -4.607930  -1.500687  2.415377
C    -3.560692  -2.189286  0.280744
C    -5.876937  -1.718149  1.897116
C    -4.888865  -2.387849  -0.227571
C    -6.003718  -2.147086  0.559240
H    -0.247315  -1.783982  2.920946
H    -0.658755  -2.050235  1.249386
H    -2.342806  -0.713898  4.623019
H    -4.826607  -0.886913  4.447553
H    -2.771224  -2.821385  -0.151555
H    -6.768447  -1.565125  2.506984
H    -5.007091  -2.792330  -1.232335
H    -6.997791  -2.326221  0.152984
O    1.951274  -0.530947  2.461860
H    2.901094  -0.564372  2.216489
Cd    -2.560821  -0.297488  -0.392062
