28
Energy: -172796.232947 eV PBE+vdW (tier 2 basis)
N    1.280605  -1.458415  0.642345
C    0.027818  -0.864120  0.857891
C    0.097081  0.591311  1.478897
O    -0.618449  0.966055  2.377458
H    1.734025  -1.350485  -0.259478
H    1.918887  -1.576206  1.425120
H    -0.456224  -0.710396  -0.119754
C    -0.914488  -1.738291  1.807514
C    -2.162259  -2.094996  1.116182
C    -2.387464  -3.343497  0.394125
C    -3.258539  -1.246120  0.756098
N    -3.475717  -3.211735  -0.370463
C    -4.075197  -1.960691  -0.161029
C    -3.625338  0.066493  1.127400
C    -5.234545  -1.438958  -0.704910
C    -4.790811  0.606114  0.584491
C    -5.580111  -0.129013  -0.311143
H    -1.110988  -1.104666  2.686302
H    -0.352938  -2.626992  2.116254
H    -1.703086  -4.181326  0.277700
H    -3.833756  -3.929191  -0.999267
H    -3.015851  0.642010  1.823313
H    -5.854738  -1.995058  -1.407077
H    -5.095213  1.614871  0.858595
H    -6.485481  0.319018  -0.719385
O    1.022022  1.304211  0.844213
H    1.049169  2.213093  1.213473
Cd    -3.234368  -4.174682  3.003465
