 24
Energy: -13526.76707815.7 eV PBE+vdW (tier 2 basis)
N   -0.322786    1.145336   2.433805
C    0.494981   -0.033997   2.784771
C    1.958644    0.207389   2.342998
O    2.180017    1.458115   1.899720
H   -0.890860    0.965570   1.605213
H    1.278465    1.886500   1.974259
H    0.544395   -0.090312   3.883915
C   -0.022683   -1.369197   2.234867
C   -1.374652   -1.817976   2.807404
C   -1.426053   -1.976183   4.332964
C   -0.423443   -2.980326   4.902837
N   -0.572346   -3.078594   6.359476
H    0.752865   -2.124446   2.418953
H   -0.100296   -1.286338   1.137417
H   -1.642315   -2.775353   2.332790
H   -2.162240   -1.109501   2.502615
H   -2.444314   -2.292111   4.614448
H   -1.271542   -1.008686   4.837710
H    0.604242   -2.641716   4.703257
H   -0.540913   -3.946207   4.369611
H   -1.463629   -3.515061   6.599673
H    0.156712   -3.671050   6.756019
O    2.821867   -0.639644   2.412764
H   -0.957114    1.406788   3.185517
