 24
Energy: -13526.57812515.7 eV PBE+vdW (tier 2 basis)
N   -0.422783    0.338529   0.456314
C    0.364411   -0.019167   1.637491
C    1.843590   -0.183886   1.312476
O    2.650821   -0.750128   2.019274
H   -0.013946    1.136609  -0.027879
H   -1.366632    0.602982   0.736574
H    0.375916    0.782772   2.410502
C   -0.178951   -1.298213   2.293606
C   -1.600811   -1.172176   2.856469
C   -1.801108   -0.080501   3.918433
C   -0.935940   -0.229444   5.174907
N   -1.182257   -1.515715   5.838764
H    0.518114   -1.600186   3.085881
H   -0.163242   -2.095840   1.536317
H   -1.867856   -2.142497   3.297650
H   -2.317692   -1.008159   2.035833
H   -2.863006   -0.074248   4.217258
H   -1.615330    0.919812   3.492453
H   -1.109806    0.650682   5.824831
H    0.129375   -0.202095   4.899869
H   -0.521014   -1.661391   6.600603
H   -2.114821   -1.531082   6.254090
O    2.201933    0.438348   0.152776
H    3.166085    0.304152   0.071782
