 24
Energy: -13526.56591815.7 eV PBE+vdW (tier 2 basis)
N    3.073685   -2.247206   2.539382
C    1.687647   -1.742789   2.522035
C    1.614895   -0.691963   1.412948
O    1.826619   -1.272112   0.192753
H    3.163409   -2.959362   3.264790
H    1.802589   -0.543840  -0.457811
H    0.947176   -2.524752   2.250774
C    1.313345   -1.160087   3.883921
C   -0.184920   -0.905522   4.061706
C   -0.517491   -0.273670   5.415319
C   -2.010343   -0.030274   5.646951
N   -2.563817    0.893033   4.647101
H    1.881984   -0.230935   4.035183
H    1.658848   -1.868638   4.655720
H   -0.734404   -1.857891   3.962916
H   -0.556465   -0.250077   3.262512
H    0.022462    0.684742   5.511627
H   -0.141251   -0.912237   6.231803
H   -2.153954    0.306504   6.692867
H   -2.552658   -0.984543   5.548755
H   -2.144829    1.818767   4.749594
H   -3.567268    1.011619   4.783168
O    1.412745    0.493980   1.541775
H    3.297998   -2.694746   1.650211
