 24
Energy: -13526.70099415.7 eV PBE+vdW (tier 2 basis)
N   -0.532586    1.227456   2.122376
C    0.366630    0.129505   1.716322
C   -0.010862   -0.306405   0.282892
O    0.714839   -0.959400  -0.433754
H   -0.147026    2.139213   1.878587
H   -0.696306    1.220814   3.128565
H    1.425924    0.431872   1.688115
C    0.212374   -1.056835   2.688841
C    1.226682   -2.186579   2.488833
C    0.986665   -3.405428   3.392076
C    1.043453   -3.139036   4.898845
N    2.372140   -2.668682   5.314064
H    0.305823   -0.646676   3.709322
H   -0.814506   -1.451267   2.608892
H    2.245239   -1.795452   2.647232
H    1.203833   -2.512206   1.440224
H    1.738502   -4.170757   3.148852
H    0.001913   -3.840755   3.155540
H    0.852538   -4.085706   5.425078
H    0.218461   -2.456478   5.188974
H    2.423093   -2.592237   6.329595
H    2.560528   -1.735491   4.946520
O   -1.249313    0.083511  -0.080181
H   -1.549037    0.647020   0.688190
