 24
Energy: -13526.74721515.7 eV PBE+vdW (tier 2 basis)
N    1.312283   -1.195952   0.779995
C    0.179537   -0.404314   1.304385
C   -0.050895    0.821327   0.383851
O   -0.835863    1.707181   0.640420
H    1.127927   -2.196135   0.809561
H    2.160040   -1.026240   1.322497
H   -0.733208   -1.013250   1.194672
C    0.306258    0.030111   2.769098
C    0.229828   -1.129774   3.766190
C    0.460523   -0.729392   5.228955
C   -0.623120    0.170796   5.823517
N   -0.375174    0.388825   7.255904
H   -0.485351    0.766740   2.958408
H    1.261534    0.571523   2.893327
H    0.974377   -1.897147   3.497836
H   -0.754693   -1.620146   3.672216
H    1.439386   -0.225348   5.317334
H    0.526632   -1.633436   5.852535
H   -1.598112   -0.333452   5.728691
H   -0.696861    1.108955   5.240853
H    0.482000    0.928993   7.386127
H   -1.125881    0.945293   7.665266
O    0.688826    0.787138  -0.739056
H    1.218005   -0.056296  -0.634580
