 24
Energy: -13526.76777115.7 eV PBE+vdW (tier 2 basis)
N   -0.799125   -0.645776   1.299523
C    0.184100    0.339287   1.798572
C    0.648002    1.233935   0.620767
O   -0.045782    1.020698  -0.511559
H   -0.376221   -1.569933   1.205679
H   -0.680834    0.291150  -0.251760
H   -0.342987    1.025840   2.481624
C    1.386084   -0.262340   2.535192
C    1.039744   -0.882929   3.889828
C    2.242438   -1.549803   4.563657
C    1.951476   -2.100418   5.960907
N    0.952439   -3.179786   5.925373
H    2.134573    0.532746   2.659417
H    1.853319   -1.020036   1.881209
H    0.236928   -1.628379   3.762225
H    0.634711   -0.097116   4.551967
H    3.064820   -0.820093   4.641315
H    2.605226   -2.374787   3.930044
H    1.670707   -1.260600   6.628697
H    2.878835   -2.526356   6.369921
H    0.013505   -2.800461   5.801865
H    0.939643   -3.679045   6.814174
O    1.530174    2.057738   0.719892
H   -1.598773   -0.739537   1.921470
