 24
Energy: -13526.57874615.7 eV PBE+vdW (tier 2 basis)
N    0.587861    0.335718   0.298069
C   -0.006828    0.200940   1.638334
C    1.080155    0.047168   2.699788
O    1.375487    0.881848   3.531262
H    1.271926    1.093557   0.282615
H    1.084849   -0.520775   0.046730
H   -0.496610    1.156243   1.876973
C   -1.062124   -0.913722   1.618098
C   -1.972985   -0.997249   2.854431
C   -1.392702   -1.608132   4.141996
C   -1.282179   -3.135301   4.174631
N   -0.379483   -3.664506   3.142240
H   -0.585373   -1.887435   1.439577
H   -1.683018   -0.696587   0.736145
H   -2.864305   -1.581047   2.573961
H   -2.342744    0.015602   3.084722
H   -2.044690   -1.319362   4.981158
H   -0.413286   -1.165358   4.383301
H   -2.279926   -3.567716   3.992684
H   -0.996554   -3.432022   5.203866
H    0.551456   -3.255697   3.238773
H   -0.274538   -4.673770   3.242779
O    1.780105   -1.128708   2.582173
H    2.494385   -1.067131   3.245493
