 24
Energy: -13526.67837915.7 eV PBE+vdW (tier 2 basis)
N    0.442316   -0.777834  -0.100707
C    0.092287   -0.287533   1.225089
C    1.295281   -0.122821   2.158719
O    2.346388   -0.722947   2.071609
H    1.106898   -0.146400  -0.548537
H    0.920177   -1.677553  -0.016827
H   -0.373931    0.704788   1.116121
C   -0.925981   -1.227502   1.906162
C   -2.239312   -1.353408   1.131883
C   -3.306016   -2.185640   1.856408
C   -2.917069   -3.634782   2.169179
N   -2.488980   -4.350131   0.960157
H   -1.119393   -0.856287   2.924654
H   -0.453059   -2.217285   2.012845
H   -2.031519   -1.787100   0.145997
H   -2.646353   -0.345534   0.949499
H   -4.222837   -2.190187   1.242484
H   -3.585145   -1.698256   2.805314
H   -3.766479   -4.112911   2.695886
H   -2.072594   -3.649940   2.875446
H   -2.216122   -5.306233   1.185935
H   -3.260675   -4.417832   0.294594
O    1.049933    0.788349   3.146254
H    1.849741    0.798140   3.707656
