 24
Energy: -13526.57156715.7 eV PBE+vdW (tier 2 basis)
N   -0.413427   -1.128997  -0.432528
C   -0.271314   -0.478897   0.869508
C    1.186184   -0.344110   1.295724
O    1.551796    0.005063   2.399512
H    0.184435   -0.690224  -1.131026
H   -1.377281   -1.046566  -0.755659
H   -0.601585    0.583758   0.865670
C   -1.132168   -1.179054   1.944875
C   -1.036610   -2.709838   2.006771
C    0.322933   -3.294438   2.411826
C    0.776045   -2.978218   3.840536
N   -0.186900   -3.489379   4.828062
H   -2.180806   -0.908204   1.743698
H   -0.887499   -0.726727   2.915706
H   -1.313339   -3.124880   1.027671
H   -1.791498   -3.055462   2.727683
H    1.107311   -2.971189   1.709458
H    0.271505   -4.390698   2.294747
H    0.849255   -1.890475   3.978177
H    1.801681   -3.374721   3.975039
H   -0.167657   -4.510251   4.848794
H    0.063067   -3.176411   5.765530
O    2.065835   -0.572472   0.278711
H    2.949699   -0.397392   0.656063
