 24
Energy: -13526.66711815.7 eV PBE+vdW (tier 2 basis)
N    2.613189   -2.264257   3.505940
C    1.323501   -1.842881   2.923764
C    1.493918   -1.716932   1.394651
O    2.781638   -1.592194   1.013691
H    2.730532   -1.895290   4.449171
H    3.286802   -1.718330   1.866245
H    0.517769   -2.576222   3.090998
C    0.904924   -0.493342   3.537153
C   -0.445905    0.057852   3.064895
C   -0.892999    1.307783   3.847335
C   -1.755962    1.034953   5.083173
N   -1.078602    0.198454   6.091491
H    1.693593    0.248227   3.326553
H    0.888248   -0.617578   4.631692
H   -1.217817   -0.727146   3.141176
H   -0.383102    0.290463   1.994098
H   -1.481017    1.956822   3.180814
H   -0.008618    1.892189   4.148073
H   -2.722809    0.607195   4.751269
H   -1.990207    1.997167   5.561285
H   -1.562952    0.273441   6.985892
H   -1.136699   -0.786818   5.830572
O    0.567463   -1.700099   0.614530
H    2.689111   -3.279456   3.559536
