 24
Energy: -13526.68787215.7 eV PBE+vdW (tier 2 basis)
N   -0.395752   -1.194743   1.339375
C    0.047593    0.049419   2.001135
C    0.460414    1.079970   0.924960
O    0.695163    2.240345   1.179796
H   -1.410605   -1.267380   1.295262
H   -0.047078   -2.025010   1.816171
H   -0.769195    0.521231   2.567072
C    1.248162   -0.201064   2.931783
C    0.952477   -1.000228   4.213553
C    0.498673   -0.178749   5.432477
C   -0.827412    0.575342   5.305828
N   -1.952925   -0.342313   5.074838
H    1.678865    0.776812   3.188782
H    2.014813   -0.724760   2.336765
H    1.871493   -1.531262   4.501997
H    0.219726   -1.801148   4.012343
H    1.285557    0.553882   5.674156
H    0.422495   -0.859418   6.294099
H   -0.733822    1.374926   4.545122
H   -1.019216    1.088046   6.259684
H   -1.900435   -0.761988   4.145866
H   -2.837929    0.162971   5.111134
O    0.552238    0.554509  -0.310490
H    0.269701   -0.395392  -0.173708
