 24
Energy: -13526.62879915.7 eV PBE+vdW (tier 2 basis)
N    0.656544    1.543318   1.125521
C    0.679647    0.563020   2.215965
C    2.077298    0.042978   2.546764
O    2.612045    0.087391   3.636903
H    1.050635    1.137331   0.275338
H    1.226762    2.356374   1.359793
H    0.327898    1.068445   3.124087
C   -0.286933   -0.587566   1.892182
C   -0.287963   -1.763867   2.878965
C   -0.647818   -1.471983   4.345834
C   -2.039462   -0.877135   4.591997
N   -2.062730    0.575130   4.349178
H   -0.037885   -0.975771   0.891236
H   -1.283575   -0.132032   1.824886
H    0.699265   -2.254806   2.860907
H   -0.993438   -2.517833   2.493046
H    0.109957   -0.816225   4.804913
H   -0.580714   -2.423410   4.896048
H   -2.367132   -1.150254   5.613799
H   -2.763261   -1.340202   3.902192
H   -1.556530    1.059237   5.092251
H   -3.019072    0.928741   4.378248
O    2.704434   -0.492718   1.454166
H    3.581484   -0.783924   1.769464
