 24
Energy: -13526.51163415.7 eV PBE+vdW (tier 2 basis)
N   -0.516691   -0.594897  -0.814576
C   -0.768835   -0.574043   0.624250
C   -0.478319    0.801158   1.258583
O    0.471501    1.486306   0.962208
H   -1.123585    0.076042  -1.288325
H    0.439085   -0.271282  -0.983649
H   -1.833656   -0.826669   0.775105
C    0.090937   -1.651764   1.310902
C   -0.141240   -1.817422   2.814228
C    0.685787   -2.954830   3.418647
C    0.485335   -3.108547   4.925239
N    1.268524   -4.237937   5.441566
H   -0.112833   -2.595911   0.784899
H    1.149765   -1.407996   1.124404
H   -1.212442   -2.012270   3.002871
H    0.099026   -0.879105   3.340318
H    1.754820   -2.772051   3.213297
H    0.438426   -3.910118   2.930368
H   -0.576034   -3.321523   5.129730
H    0.711786   -2.141675   5.419174
H    1.088354   -4.374006   6.436208
H    2.267622   -4.045048   5.354506
O   -1.358667    1.235268   2.212836
H   -2.056666    0.567320   2.330212
