 24
Energy: -13526.77449915.7 eV PBE+vdW (tier 2 basis)
N   -1.414206   -1.039322   0.599912
C   -1.402067   -0.827128   2.062228
C   -0.505614    0.394682   2.386116
O   -0.240421    0.747151   3.515162
H   -2.352432   -1.224457   0.251916
H   -0.830911   -1.836438   0.343572
H   -2.408872   -0.492315   2.357926
C   -1.061417   -2.064295   2.915565
C    0.176100   -2.872109   2.496167
C    1.533745   -2.158683   2.580372
C    1.973697   -1.782931   3.999849
N    2.059575   -2.973613   4.859061
H   -0.957643   -1.725589   3.955539
H   -1.933005   -2.736161   2.895513
H    0.041745   -3.268248   1.474013
H    0.216978   -3.759470   3.143751
H    1.548262   -1.247883   1.961343
H    2.295866   -2.822898   2.138212
H    1.241476   -1.096002   4.445190
H    2.921091   -1.215680   3.928815
H    2.181861   -2.701193   5.833526
H    2.874715   -3.536588   4.611613
O   -0.090181    1.053280   1.289117
H   -0.484339    0.510889   0.543521
