 24
Energy: -13526.63999015.7 eV PBE+vdW (tier 2 basis)
N    0.443204   -0.048959  -0.284021
C   -0.098003    0.089197   1.074156
C    0.987203   -0.005705   2.148086
O    1.349747    0.900157   2.869921
H    0.898120   -0.956943  -0.393153
H    1.151930    0.663434  -0.462905
H   -0.503263    1.106749   1.167851
C   -1.223732   -0.926519   1.301510
C   -1.899471   -0.799775   2.670771
C   -3.103967   -1.728560   2.865282
C   -2.759252   -3.218398   2.879669
N   -3.961202   -4.019852   3.140421
H   -0.813560   -1.939245   1.165902
H   -1.959443   -0.773238   0.497460
H   -2.229531    0.241728   2.810735
H   -1.163181   -0.990571   3.469867
H   -3.857586   -1.547617   2.082745
H   -3.591014   -1.474480   3.821693
H   -1.937659   -3.387880   3.606327
H   -2.372334   -3.523954   1.895956
H   -3.746579   -5.015880   3.096275
H   -4.309711   -3.840195   4.083372
O    1.563007   -1.246955   2.189598
H    2.261344   -1.192347   2.869868
