 24
Energy: -13526.70089615.7 eV PBE+vdW (tier 2 basis)
N    0.739506   -1.964511   1.140676
C    1.186623   -1.177181   2.282574
C    2.705286   -1.160200   2.460906
O    3.123491   -0.057905   3.149842
H    1.099855   -1.565828   0.273301
H    4.090397   -0.155322   3.253069
H    0.869084   -0.134768   2.127942
C    0.553105   -1.700047   3.592286
C   -0.979529   -1.665339   3.611422
C   -1.607476   -0.275895   3.434139
C   -1.163673    0.785526   4.445353
N   -1.420210    0.350477   5.825333
H    0.955138   -1.123314   4.437406
H    0.891719   -2.738296   3.741841
H   -1.304759   -2.087190   4.572977
H   -1.364788   -2.323871   2.820812
H   -2.704150   -0.382734   3.489344
H   -1.406252    0.105329   2.420338
H   -1.653262    1.743388   4.180515
H   -0.080285    0.961490   4.354875
H   -2.424621    0.259954   5.986906
H   -1.081893    1.045771   6.489978
O    3.472105   -2.015198   2.068487
H    1.137593   -2.904335   1.201681
