 24
Energy: -13526.74687215.7 eV PBE+vdW (tier 2 basis)
N    0.148076   -0.897947  -0.202742
C   -0.882166   -0.845183   0.857366
C   -0.745355    0.487956   1.631037
O   -1.559996    0.868423   2.441820
H   -0.243567   -0.673086  -1.115498
H    0.573809   -1.821262  -0.270601
H   -1.897256   -0.846826   0.432130
C   -0.777543   -2.024501   1.839393
C    0.542459   -2.110613   2.613768
C    0.598657   -3.330450   3.538544
C    1.921112   -3.478438   4.293148
N    2.112453   -2.396584   5.267021
H   -1.609989   -1.931907   2.551167
H   -0.948585   -2.957225   1.275693
H    0.663978   -1.188606   3.203869
H    1.399463   -2.148590   1.919129
H    0.433898   -4.244064   2.943239
H   -0.220170   -3.273346   4.272909
H    2.746516   -3.568893   3.555877
H    1.901320   -4.423564   4.855220
H    2.921865   -2.585995   5.857106
H    2.300593   -1.509756   4.799048
O    0.378299    1.165674   1.328889
H    0.801124    0.594783   0.623464
