 24
Energy: -13526.64982715.7 eV PBE+vdW (tier 2 basis)
N    2.013005   -0.205999   3.249530
C    1.118852   -1.218990   2.646917
C    1.893174   -1.954184   1.517177
O    3.188702   -1.606222   1.452014
H    1.725658    0.736725   2.989376
H    3.268002   -0.913541   2.173639
H    0.924174   -2.001019   3.399021
C   -0.222375   -0.688162   2.119013
C   -1.368294   -0.526839   3.128063
C   -1.164519    0.460847   4.294916
C   -0.634764   -0.177086   5.590041
N   -0.393319    0.725959   6.716747
H   -0.550619   -1.384481   1.335067
H   -0.033296    0.274103   1.609977
H   -1.623532   -1.519532   3.536705
H   -2.252650   -0.216402   2.552552
H   -2.126187    0.942390   4.533608
H   -0.493429    1.281726   3.988850
H    0.302322   -0.723527   5.396796
H   -1.348997   -0.945213   5.925871
H   -1.261013    1.184305   6.998618
H    0.249507    1.473132   6.449302
O    1.380565   -2.775560   0.789325
H    2.024032   -0.253430   4.265878
