 24
Energy: -13526.52650615.7 eV PBE+vdW (tier 2 basis)
N    1.263817    0.351383   0.732528
C    0.364627    0.043887   1.844280
C    0.982121    0.198743   3.236610
O    0.452818    0.741963   4.183951
H    2.053598   -0.295043   0.727267
H    1.650657    1.290757   0.826921
H   -0.465592    0.765574   1.826270
C   -0.214640   -1.383860   1.721490
C   -1.412473   -1.579104   0.778131
C   -1.181323   -1.424437  -0.734975
C   -1.354009   -0.005231  -1.277300
N   -1.224519    0.001276  -2.740785
H   -0.533748   -1.704405   2.725308
H    0.606959   -2.061690   1.435953
H   -2.230028   -0.909106   1.095305
H   -1.783882   -2.597827   0.967158
H   -1.900119   -2.076665  -1.259401
H   -0.180983   -1.789087  -1.013376
H   -0.557076    0.631865  -0.871360
H   -2.322317    0.397889  -0.913852
H   -1.224541    0.956981  -3.096234
H   -2.021438   -0.468694  -3.173438
O    2.223255   -0.369282   3.318134
H    2.513220   -0.241079   4.241884
