 24
Energy: -13526.71549515.7 eV PBE+vdW (tier 2 basis)
N   -0.259735   -0.270903  -0.266047
C   -0.117410    0.013870   1.174416
C    1.387623    0.074209   1.507527
O    2.152280   -0.613339   0.635901
H   -1.137910   -0.749963  -0.463897
H    1.508606   -0.881500  -0.077524
H   -0.534525    0.990860   1.466881
C   -0.846713   -1.088857   1.972915
C   -0.646577   -1.067035   3.498289
C    0.485626   -1.973459   3.995792
C    0.867174   -1.747667   5.469599
N    1.463337   -0.452129   5.806537
H   -0.538934   -2.068114   1.569613
H   -1.916809   -0.978145   1.735381
H   -1.584944   -1.376317   3.983418
H   -0.461916   -0.030803   3.820704
H    1.388136   -1.828961   3.381618
H    0.188536   -3.027799   3.860610
H    1.579369   -2.532228   5.769044
H   -0.019808   -1.885452   6.109501
H    2.228328   -0.241569   5.162392
H    0.786664    0.300215   5.676666
O    1.842092    0.661093   2.465464
H   -0.243694    0.583703  -0.822389
