 24
Energy: -13526.66286015.7 eV PBE+vdW (tier 2 basis)
N   -0.060335    0.991551   1.507412
C   -0.175038    0.079515   2.635768
C    1.188375   -0.299519   3.224370
O    2.268438   -0.000236   2.758517
H   -0.005384    0.445414   0.640803
H    0.809292    1.520935   1.582983
H   -0.709509    0.581757   3.466013
C   -0.973085   -1.192838   2.280466
C   -2.472000   -0.983261   2.010185
C   -2.904005   -0.289470   0.707256
C   -2.460748   -0.979364  -0.591910
N   -1.115931   -0.544551  -1.021015
H   -0.881373   -1.888502   3.125257
H   -0.487177   -1.675483   1.418292
H   -2.903909   -0.428621   2.859715
H   -2.947662   -1.978308   2.034720
H   -2.552401    0.753069   0.699938
H   -4.004156   -0.244823   0.711057
H   -3.226185   -0.805920  -1.370895
H   -2.421938   -2.069396  -0.437170
H   -0.779433   -1.132306  -1.784228
H   -1.168881    0.404520  -1.395626
O    1.067063   -0.996940   4.392325
H    1.979612   -1.168837   4.694706
