 24
Energy: -13526.61884115.7 eV PBE+vdW (tier 2 basis)
N    0.632374    0.725708   0.701308
C    0.607111   -0.151903   1.885497
C    2.016823   -0.642810   2.208391
O    2.713486   -0.237170   3.117926
H    0.959721    0.205034  -0.114779
H    1.287380    1.496167   0.843426
H    0.310874    0.466503   2.744672
C   -0.430914   -1.264705   1.684083
C   -0.841612   -2.034361   2.946226
C    0.216112   -2.974880   3.533642
C   -0.281970   -3.778560   4.737364
N   -0.619919   -2.893149   5.860879
H   -0.070863   -1.962319   0.910374
H   -1.316636   -0.764045   1.266092
H   -1.733721   -2.632595   2.698469
H   -1.166711   -1.327096   3.723751
H    1.108031   -2.408171   3.847960
H    0.561774   -3.678069   2.758768
H    0.475881   -4.546582   4.988619
H   -1.198880   -4.322048   4.457845
H   -1.021824   -3.426395   6.631327
H    0.224549   -2.448630   6.224881
O    2.471941   -1.556618   1.297089
H    3.394341   -1.747694   1.554000
