 24
Energy: -13526.84160715.7 eV PBE+vdW (tier 2 basis)
N   -0.256727    0.243427   1.701483
C    1.153092   -0.193689   1.682646
C    1.428554   -0.917797   0.335680
O    2.517233   -1.353077   0.023590
H   -0.355846   -0.538332   0.143264
H   -0.341767    1.257280   1.703436
H    1.831105    0.675835   1.687608
C    1.538465   -1.118789   2.847492
C    1.872458   -0.430232   4.179267
C    0.747240    0.260818   4.968858
C   -0.428551   -0.646055   5.368052
N   -1.500010   -0.647879   4.347590
H    2.429476   -1.674571   2.524598
H    0.741165   -1.868798   2.978498
H    2.673360    0.304981   3.996262
H    2.319644   -1.191869   4.839598
H    0.354887    1.129933   4.416503
H    1.195332    0.672782   5.885841
H   -0.806688   -0.344629   6.360192
H   -0.070995   -1.680872   5.477171
H   -2.114125    0.155689   4.489902
H   -2.091039   -1.473228   4.449148
O    0.334628   -1.003885  -0.434519
H   -0.756888   -0.126044   2.524843
