 24
Energy: -13526.65352115.7 eV PBE+vdW (tier 2 basis)
N    1.899627    0.068600   2.455398
C    2.043048   -0.163384   1.021620
C    1.062557    0.735250   0.285599
O    0.094686    1.274344   0.780609
H    0.939982    0.350453   2.662201
H    2.105844   -0.777780   2.983419
H    3.051951    0.147763   0.700168
C    1.860832   -1.634848   0.556972
C    0.446136   -2.195834   0.703960
C    0.367494   -3.693144   0.395496
C   -1.058144   -4.251525   0.401136
N   -1.857891   -3.671765  -0.687423
H    2.573413   -2.239572   1.143771
H    2.187397   -1.712155  -0.491634
H   -0.245684   -1.661568   0.035911
H    0.077512   -2.021419   1.728307
H    0.970191   -4.258805   1.124999
H    0.823867   -3.893600  -0.590244
H   -1.548477   -3.982442   1.349980
H   -1.009257   -5.357677   0.375405
H   -1.550787   -4.041432  -1.588222
H   -2.840057   -3.926352  -0.589251
O    1.377374    0.852615  -1.033522
H    0.675387    1.406279  -1.426652
