35
Energy: -243352.722557 eV PBE+vdW (tier 2 basis)
C    -0.093379  -0.379763  0.239573
C    -0.008865  -0.148359  1.710438
O    1.096639  -0.222147  2.320485
H    0.385238  -1.350465  0.037785
H    0.493442  0.366446  -0.314332
H    -1.115696  -0.411077  -0.147759
N    -1.134744  0.115119  2.434174
C    -2.077444  1.160741  2.033630
C    -1.502472  2.508540  2.581010
O    -0.290018  2.570227  2.953815
H    -0.950365  0.089326  3.437402
H    -1.998535  1.259548  0.939180
C    -3.554344  0.816253  2.324782
C    -3.959264  0.517631  3.778329
C    -5.444088  0.096651  3.854721
C    -5.878645  -0.265671  5.274195
N    -7.337899  -0.701937  5.318656
H    -3.779855  -0.060228  1.699426
H    -4.188747  1.619135  1.915546
H    -3.788902  1.397352  4.419190
H    -3.338727  -0.298715  4.180539
H    -5.604532  -0.767590  3.190044
H    -6.076310  0.914078  3.471946
H    -5.796554  0.581422  5.966596
H    -5.302526  -1.104883  5.683684
H    -7.972266  0.041445  4.990369
H    -7.626716  -0.946038  6.278323
H    -7.508628  -1.531070  4.730036
N    -2.285711  3.573937  2.583869
C    -1.854095  4.925216  2.962461
H    -3.235495  3.467872  2.238862
H    -2.732741  5.574917  2.987944
H    -1.140818  5.320124  2.228380
H    -1.389297  4.909552  3.954167
Ba    2.102355  1.828393  3.276508
