35
Energy: -243352.043500 eV PBE+vdW (tier 2 basis)
C    -1.170567  -0.598146  -0.294365
C    -0.635989  0.268201  0.803901
O    0.618468  0.586733  0.812986
H    -0.644788  -1.563723  -0.292721
H    -0.995256  -0.116238  -1.266596
H    -2.242913  -0.797856  -0.200447
N    -1.474126  0.676708  1.737918
C    -1.227303  1.488456  2.937290
C    -2.298077  1.012157  3.943574
O    -3.423958  0.707158  3.489053
H    -2.446959  0.352427  1.690346
H    -0.211103  1.281418  3.292676
C    -1.378131  3.010884  2.650239
C    -2.799133  3.497984  2.300699
C    -3.647049  3.968278  3.506736
C    -5.155538  3.842058  3.296180
N    -5.653296  2.438826  3.637969
H    -0.693465  3.242946  1.822539
H    -0.990093  3.559412  3.521269
H    -3.330208  2.715594  1.737351
H    -2.710373  4.339966  1.601914
H    -3.433464  5.027484  3.703817
H    -3.365964  3.448344  4.436245
H    -5.439070  4.035855  2.254835
H    -5.720187  4.533926  3.930307
H    -4.908712  1.712917  3.483479
H    -5.916990  2.381787  4.629771
H    -6.490465  2.186716  3.097139
N    -2.004408  0.990615  5.245596
C    -0.723532  1.280031  5.897934
H    -2.755552  0.641458  5.839613
H    -0.307792  2.235433  5.558433
H    0.001087  0.470837  5.736709
H    -0.901647  1.363065  6.974051
Ba    2.847390  0.542666  0.021264
