35
Energy: -243352.852741 eV PBE+vdW (tier 2 basis)
C    0.279823  -0.958952  0.064570
C    -0.178915  -0.587270  1.433555
O    0.592459  -0.012426  2.257934
H    -0.486193  -1.465445  -0.531719
H    1.164700  -1.605937  0.139532
H    0.598853  -0.048352  -0.462776
N    -1.446532  -0.868943  1.799847
C    -1.991095  -0.420646  3.085906
C    -1.261870  -1.103411  4.275336
O    -0.564833  -0.342297  5.019023
H    -2.061305  -1.286501  1.106565
H    -1.659156  0.620919  3.202984
C    -3.538867  -0.319080  3.120954
C    -4.417944  -1.567677  2.930975
C    -5.907537  -1.264337  2.638304
C    -6.697687  -0.724775  3.831285
N    -8.180064  -0.612263  3.496085
H    -3.789987  0.419007  2.341938
H    -3.776140  0.169449  4.077825
H    -4.350698  -2.227094  3.807709
H    -4.067093  -2.163173  2.075214
H    -6.370173  -2.206260  2.304605
H    -5.981499  -0.561872  1.792554
H    -6.385212  0.280261  4.139593
H    -6.637458  -1.390516  4.701722
H    -8.348292  0.024012  2.702402
H    -8.722601  -0.252081  4.295941
H    -8.583568  -1.527006  3.242555
N    -1.289568  -2.408354  4.522122
C    -1.861238  -3.528725  3.774578
H    -0.771090  -2.667369  5.363468
H    -1.099178  -4.311903  3.684602
H    -2.155958  -3.220639  2.770978
H    -2.724263  -3.948690  4.305091
Ba    1.518895  0.855850  4.369205
