35
Energy: -243351.902870 eV PBE+vdW (tier 2 basis)
C    0.660685  0.550648  1.908091
C    -0.447483  -0.278683  2.474371
O    -0.129807  -1.229330  3.292099
H    0.364860  1.189683  1.075223
H    1.473044  -0.097717  1.564145
H    1.047865  1.191945  2.715972
N    -1.748209  0.081166  2.400391
C    -2.358587  0.519024  1.136937
C    -1.825132  -0.496725  0.059601
O    -0.858806  -1.217328  0.356786
H    -2.344497  -0.530229  2.956677
H    -3.436904  0.346460  1.261222
C    -2.129521  2.013780  0.757955
C    -3.342612  2.962283  0.853139
C    -3.828485  3.276784  2.281959
C    -4.521535  4.627309  2.458745
N    -5.848278  4.748980  1.712272
H    -1.743765  2.066428  -0.268853
H    -1.332018  2.416467  1.395387
H    -4.168075  2.569260  0.237757
H    -3.024903  3.900248  0.369794
H    -2.962991  3.329299  2.960857
H    -4.466550  2.472839  2.682702
H    -3.900098  5.454082  2.091630
H    -4.759445  4.817654  3.512020
H    -6.275463  5.673281  1.876873
H    -6.529323  4.041466  2.023131
H    -5.732441  4.647951  0.694361
N    -2.433390  -0.557546  -1.131250
C    -3.598624  0.180933  -1.609419
H    -2.006405  -1.216053  -1.780500
H    -3.326671  1.173660  -1.993507
H    -4.054080  -0.386991  -2.426450
H    -4.353754  0.281329  -0.820274
Ba    0.999572  -3.185472  3.860471
