35
Energy: -243351.628714 eV PBE+vdW (tier 2 basis)
C    0.222680  -0.970098  0.211022
C    0.046176  -0.385783  1.580055
O    0.980459  -0.203766  2.375804
H    0.673017  -1.967227  0.312116
H    0.935306  -0.358657  -0.357870
H    -0.708245  -1.055822  -0.359676
N    -1.228779  -0.055427  1.964370
C    -1.456211  0.524809  3.290523
C    -2.901715  0.235218  3.699374
O    -3.787944  1.170410  3.819718
H    -1.979138  -0.114312  1.283393
H    -0.837240  -0.082178  3.974286
C    -0.953676  1.986690  3.435322
C    0.198790  2.121572  4.460445
C    1.284165  3.159708  4.124595
C    2.176427  2.889117  2.912903
N    2.954169  1.589839  3.018884
H    -1.781793  2.654175  3.713691
H    -0.635226  2.316478  2.438142
H    0.668605  1.136244  4.594099
H    -0.208943  2.380366  5.447250
H    1.923038  3.292941  5.011496
H    0.832796  4.148562  3.951221
H    2.911072  3.695327  2.804405
H    1.616368  2.818925  1.972113
H    3.384668  1.475498  3.946021
H    2.320420  0.773528  2.822956
H    3.717017  1.563346  2.329471
N    -3.249972  -1.016750  3.942277
C    -2.426498  -2.233069  3.890962
H    -4.230088  -1.164213  4.181915
H    -1.399150  -2.023128  4.203813
H    -2.421947  -2.650621  2.876552
H    -2.862289  -2.965092  4.577729
Ba    -5.505235  2.759919  4.162704
