35
Energy: -243351.935515 eV PBE+vdW (tier 2 basis)
C    -0.016148  1.548265  0.988931
C    -0.105437  0.252776  1.723185
O    0.971542  -0.332842  2.146792
H    -0.730273  1.611964  0.158287
H    0.996046  1.707602  0.607931
H    -0.265346  2.375546  1.673049
N    -1.283902  -0.300722  1.973375
C    -2.605290  0.200564  1.523806
C    -3.047068  1.538186  2.183319
O    -3.526557  2.391374  1.440909
H    -1.270220  -1.164828  2.516095
H    -2.497901  0.466243  0.464101
C    -3.668582  -0.917504  1.631018
C    -4.867175  -0.786833  0.666215
C    -5.939522  0.264243  1.016501
C    -7.103252  0.169217  0.032717
N    -8.165184  1.224838  0.312508
H    -4.025097  -1.016003  2.667270
H    -3.171874  -1.867335  1.379083
H    -5.344031  -1.777653  0.630714
H    -4.488155  -0.598432  -0.350535
H    -5.505097  1.274528  0.983584
H    -6.305690  0.091201  2.041786
H    -7.618771  -0.798235  0.082313
H    -6.781894  0.336026  -1.003197
H    -8.944232  1.161015  -0.359549
H    -7.778004  2.177432  0.245997
H    -8.565853  1.120609  1.255841
N    -2.924901  1.715662  3.522772
C    -2.470007  0.800073  4.562394
H    -3.247337  2.633025  3.825611
H    -2.880154  1.134987  5.520583
H    -1.374014  0.784257  4.657505
H    -2.836572  -0.220919  4.400329
Ba    3.185148  -1.014084  2.529113
