35
Energy: -243352.279234 eV PBE+vdW (tier 2 basis)
C    -1.013800  1.236554  2.302917
C    -0.890076  -0.209357  2.667602
O    0.235134  -0.705985  2.956201
H    -0.078428  1.750192  2.543505
H    -1.203809  1.355866  1.224635
H    -1.839139  1.717164  2.840564
N    -1.987307  -1.015392  2.701631
C    -3.007034  -1.062776  1.640971
C    -2.261895  -1.271201  0.279235
O    -1.031674  -1.586154  0.274674
H    -1.772952  -1.928499  3.100420
H    -3.536529  -2.013227  1.817929
C    -4.079874  0.050420  1.675682
C    -4.812682  0.136790  3.027723
C    -5.994710  1.128253  3.001601
C    -6.720583  1.161121  4.347118
N    -7.913836  2.107823  4.328552
H    -4.824365  -0.180207  0.897481
H    -3.647451  1.022699  1.403358
H    -4.101842  0.426868  3.815993
H    -5.184931  -0.863042  3.302355
H    -6.702365  0.835128  2.209145
H    -5.630707  2.137488  2.750072
H    -6.072753  1.509467  5.161165
H    -7.122542  0.178260  4.623491
H    -7.633909  3.077572  4.119647
H    -8.393325  2.119908  5.241832
H    -8.612714  1.831451  3.622995
N    -2.949928  -1.166078  -0.844231
C    -2.404437  -1.428843  -2.181987
H    -3.933017  -0.917712  -0.785281
H    -3.192233  -1.246821  -2.917341
H    -2.074485  -2.471532  -2.261378
H    -1.561586  -0.759150  -2.387934
Ba    1.284155  -2.050311  1.148922
