35
Energy: -243351.713841 eV PBE+vdW (tier 2 basis)
C    0.249448  0.128874  0.196773
C    -0.004077  0.042775  1.663243
O    1.024959  0.004672  2.455156
H    -0.635073  -0.022076  -0.420368
H    1.004730  -0.620187  -0.074779
H    0.669359  1.117861  -0.040181
N    -1.207612  -0.003694  2.221136
C    -2.625587  0.157416  1.768750
C    -3.507318  -1.089074  2.058331
O    -4.614166  -0.873934  2.579276
H    -1.155906  -0.080050  3.238766
H    -3.017930  0.886114  2.492112
C    -2.889605  0.756974  0.371740
C    -4.354785  1.233381  0.211983
C    -5.327411  0.165836  -0.335749
C    -6.788633  0.349225  0.059274
N    -7.004822  0.147796  1.562131
H    -2.654189  0.046258  -0.432450
H    -2.227684  1.625199  0.248379
H    -4.357009  2.092435  -0.471073
H    -4.698176  1.632070  1.179111
H    -5.016679  -0.850623  -0.053270
H    -5.300740  0.179065  -1.434619
H    -7.417761  -0.389381  -0.448803
H    -7.172100  1.345455  -0.190309
H    -6.183793  -0.342203  2.000160
H    -7.853832  -0.400791  1.745422
H    -7.120648  1.041094  2.054328
N    -3.111171  -2.329161  1.723279
C    -1.926852  -2.779106  0.997439
H    -3.781337  -3.047569  1.995605
H    -2.134739  -3.773616  0.590689
H    -1.048132  -2.860920  1.651803
H    -1.703806  -2.123168  0.149158
Ba    3.146021  0.138113  3.485227
