35
Energy: -243352.009114 eV PBE+vdW (tier 2 basis)
C    0.147786  -0.422300  -0.479032
C    -0.185210  -1.294432  0.681278
O    0.714142  -2.159359  1.051888
H    1.102983  0.081065  -0.268423
H    -0.612007  0.319848  -0.712150
H    0.274416  -1.050322  -1.370373
N    -1.287200  -1.216694  1.422142
C    -2.624712  -0.644843  1.137381
C    -3.199147  -1.448237  -0.074278
O    -2.460132  -1.644428  -1.036340
H    -1.284512  -1.871990  2.203027
H    -3.192626  -0.840892  2.056130
C    -2.644278  0.879882  0.874677
C    -4.037559  1.527700  0.998095
C    -3.975710  3.024882  0.640026
C    -5.309833  3.754797  0.504057
N    -5.960219  4.098583  1.842877
H    -2.270388  1.084013  -0.136871
H    -1.949859  1.357127  1.582226
H    -4.423956  1.377246  2.020208
H    -4.739221  1.029478  0.311369
H    -3.496980  3.132637  -0.345473
H    -3.318801  3.570509  1.337669
H    -6.054263  3.171757  -0.052828
H    -5.178724  4.716599  -0.005599
H    -6.174725  3.262367  2.402355
H    -6.846794  4.605879  1.701033
H    -5.351400  4.705804  2.410686
N    -4.481230  -1.867169  -0.016582
C    -5.410158  -1.865228  1.112271
H    -4.784248  -2.339846  -0.866573
H    -6.256107  -2.509635  0.855293
H    -5.808522  -0.864861  1.326808
H    -4.951812  -2.277059  2.020666
Ba    2.516638  -3.636942  1.048979
