35
Energy: -243353.261751 eV PBE+vdW (tier 2 basis)
C    -1.660017  -0.228690  -2.640357
C    -1.298172  -0.616660  -1.243546
O    -0.115520  -0.486760  -0.815371
H    -1.448319  0.842547  -2.771166
H    -2.708574  -0.417996  -2.893009
H    -1.017697  -0.765177  -3.351295
N    -2.271237  -1.099480  -0.444970
C    -2.130147  -1.422185  0.984768
C    -1.385213  -2.773733  1.148401
O    -0.121259  -2.778554  1.070368
H    -3.188333  -1.224185  -0.865867
H    -1.436261  -0.679580  1.407462
C    -3.480616  -1.294179  1.720853
C    -3.985206  0.162409  1.800101
C    -5.117414  0.437479  2.815725
C    -6.500893  -0.055524  2.391821
N    -7.572041  0.428622  3.362187
H    -3.331513  -1.679146  2.740980
H    -4.236687  -1.942959  1.244924
H    -4.290074  0.524996  0.806472
H    -3.142663  0.801536  2.102245
H    -5.161229  1.529109  2.954879
H    -4.849749  0.009469  3.795102
H    -6.586594  -1.148874  2.374585
H    -6.793170  0.332708  1.407790
H    -7.608031  1.458567  3.403908
H    -7.403257  0.092114  4.321962
H    -8.510338  0.102673  3.084634
N    -2.078087  -3.882633  1.352106
C    -1.496846  -5.221174  1.504965
H    -3.090766  -3.812853  1.394125
H    -0.502312  -5.138379  1.951434
H    -1.422503  -5.719955  0.529858
H    -2.143239  -5.812478  2.160495
Ba    1.843977  -1.583077  0.159432
