35
Energy: -243352.075665 eV PBE+vdW (tier 2 basis)
C    -0.188156  -1.078583  0.587908
C    0.009327  0.054113  1.538805
O    1.179439  0.214894  2.086227
H    -1.203838  -1.136394  0.188225
H    0.045010  -2.024162  1.096498
H    0.515158  -0.979207  -0.250392
N    -0.946174  0.899427  1.847799
C    -2.334118  1.046190  1.373005
C    -2.572171  2.570375  1.627153
O    -1.951388  3.076076  2.569759
H    -0.762576  1.689060  2.504054
H    -2.396215  0.775793  0.312392
C    -3.266952  0.180445  2.264232
C    -4.792443  0.236749  2.041623
C    -5.322835  -0.516278  0.803775
C    -6.707335  -1.143037  0.963499
N    -7.831168  -0.123841  1.138557
H    -3.069319  0.484187  3.302382
H    -2.934392  -0.866028  2.179850
H    -5.133508  1.283672  2.046662
H    -5.225768  -0.222127  2.944927
H    -4.667869  -1.373778  0.582735
H    -5.299156  0.110347  -0.100864
H    -6.759751  -1.793257  1.846080
H    -6.982353  -1.735203  0.082556
H    -7.697198  0.462537  1.974284
H    -8.740965  -0.598133  1.244603
H    -7.910541  0.501683  0.324152
N    -3.434417  3.265231  0.865524
C    -4.117877  2.886982  -0.363869
H    -3.518034  4.240327  1.154088
H    -3.928868  3.639460  -1.138909
H    -5.204338  2.822716  -0.210268
H    -3.751754  1.926370  -0.737768
Ba    3.326875  0.478755  2.935386
