35
Energy: -243352.547503 eV PBE+vdW (tier 2 basis)
C    0.211109  1.209178  0.554219
C    -0.033944  0.479745  1.834143
O    0.744747  0.614756  2.819798
H    1.294327  1.249489  0.383839
H    -0.133579  2.252106  0.634079
H    -0.275122  0.745100  -0.309504
N    -1.107050  -0.349562  1.958266
C    -2.448735  0.040004  1.530199
C    -2.921808  1.184034  2.494688
O    -2.167838  1.570313  3.438852
H    -1.094031  -0.871406  2.836314
H    -2.375081  0.476816  0.522097
C    -3.394004  -1.185870  1.513350
C    -2.975976  -2.302691  0.530471
C    -3.422962  -2.112145  -0.937172
C    -4.783355  -2.704317  -1.314552
N    -4.719151  -4.209150  -1.562943
H    -4.418378  -0.848192  1.295628
H    -3.436974  -1.596402  2.534085
H    -3.362802  -3.253154  0.929947
H    -1.883247  -2.413312  0.559977
H    -2.657432  -2.510848  -1.620806
H    -3.478870  -1.042117  -1.188986
H    -5.160997  -2.274770  -2.249845
H    -5.545587  -2.559585  -0.538316
H    -4.090753  -4.433151  -2.349275
H    -5.648976  -4.585911  -1.803287
H    -4.382933  -4.732748  -0.742272
N    -4.103985  1.736428  2.279785
C    -4.676613  2.823585  3.084973
H    -4.654109  1.407312  1.491572
H    -5.699646  3.003439  2.744679
H    -4.092349  3.743181  2.958554
H    -4.695537  2.540299  4.143088
Ba    -0.053167  1.902655  4.784096
