35
Energy: -243351.848008 eV PBE+vdW (tier 2 basis)
C    0.395911  -0.030999  0.039993
C    0.145376  -0.148259  1.516905
O    1.024947  -0.465527  2.331577
H    -0.514105  0.079996  -0.559802
H    0.953158  -0.912428  -0.299811
H    1.038489  0.841720  -0.148390
N    -1.127245  0.142685  1.943538
C    -1.490906  0.173517  3.363209
C    -2.922604  -0.371783  3.472563
O    -3.144889  -1.640179  3.429990
H    -1.768530  0.544502  1.264913
H    -0.844644  -0.576760  3.844694
C    -1.274358  1.527022  4.084904
C    0.202225  1.863535  4.398607
C    0.962101  2.600972  3.280925
C    2.482187  2.589252  3.409971
N    3.064977  1.178096  3.312981
H    -1.807630  1.476521  5.046451
H    -1.725764  2.351970  3.507403
H    0.706145  0.925473  4.676597
H    0.219307  2.490522  5.300461
H    0.666097  3.660426  3.277380
H    0.690384  2.224310  2.285533
H    2.828027  3.010181  4.361624
H    2.938259  3.170069  2.600769
H    2.429551  0.529328  2.780110
H    3.200207  0.761998  4.241753
H    3.987413  1.190943  2.860099
N    -3.921436  0.480811  3.589782
C    -5.341643  0.138510  3.685985
H    -3.677787  1.468345  3.651550
H    -5.923257  1.064486  3.691047
H    -5.545111  -0.402321  4.619715
H    -5.650987  -0.460994  2.820868
Ba    -3.667806  -3.941108  3.505970
