35
Energy: -243351.723091 eV PBE+vdW (tier 2 basis)
C    0.999581  -0.371452  0.414529
C    0.439408  -0.633806  1.784647
O    0.988735  -1.337411  2.628980
H    2.043049  -0.046860  0.505140
H    0.437325  0.369954  -0.164145
H    1.015656  -1.317711  -0.143980
N    -0.781031  -0.033094  2.070038
C    -1.428694  -0.228606  3.358653
C    -2.829744  -0.794790  3.104221
O    -3.902350  -0.081220  3.280980
H    -1.178944  0.614212  1.396847
H    -0.840611  -1.042236  3.819915
C    -1.380089  0.991819  4.306265
C    -0.216899  0.987183  5.321921
C    1.210046  1.136802  4.759237
C    2.222578  1.172858  5.902868
N    3.656136  1.207100  5.388973
H    -2.305284  1.013821  4.901298
H    -1.368915  1.917407  3.711005
H    -0.273910  0.058851  5.912667
H    -0.407475  1.806497  6.031568
H    1.284422  2.061567  4.164468
H    1.441569  0.288913  4.096363
H    2.156275  0.279621  6.536899
H    2.109237  2.057900  6.541425
H    4.332441  1.218849  6.167145
H    3.837175  2.043438  4.815386
H    3.869268  0.382152  4.809102
N    -2.960879  -2.034472  2.670634
C    -1.928637  -3.034613  2.370333
H    -3.916195  -2.328036  2.467674
H    -0.999027  -2.823929  2.905505
H    -1.727143  -3.044179  1.291140
H    -2.307543  -4.016970  2.671039
Ba    -5.928868  1.035853  3.641710
