35
Energy: -243352.229480 eV PBE+vdW (tier 2 basis)
C    -0.489428  -0.223303  -0.137148
C    -0.175723  0.232255  1.248517
O    1.035222  0.072263  1.700244
H    -0.215108  -1.281585  -0.242313
H    0.121124  0.342797  -0.854740
H    -1.542498  -0.105046  -0.404742
N    -1.066818  0.791267  2.033031
C    -2.457112  1.218764  1.798132
C    -2.570935  2.414631  2.799424
O    -1.871301  2.348399  3.818962
H    -0.800744  1.127377  2.984364
H    -2.578295  1.531818  0.754508
C    -3.431865  0.070645  2.172287
C    -4.936884  0.393629  2.114207
C    -5.765672  -0.803028  2.621147
C    -7.252025  -0.556328  2.867269
N    -8.087467  -0.507097  1.589213
H    -3.177718  -0.247598  3.195071
H    -3.211394  -0.784307  1.514305
H    -5.220573  0.666479  1.084108
H    -5.152623  1.267265  2.747642
H    -5.370230  -1.114409  3.600322
H    -5.634008  -1.681538  1.967928
H    -7.440751  0.390874  3.388230
H    -7.688601  -1.366448  3.463263
H    -9.083862  -0.355551  1.807558
H    -8.023599  -1.391842  1.065001
H    -7.795800  0.250861  0.957906
N    -3.408351  3.433914  2.551293
C    -4.192564  3.746715  1.361802
H    -3.400646  4.138905  3.288926
H    -3.893895  4.723835  0.962297
H    -5.262835  3.785562  1.603108
H    -4.037270  2.998600  0.579640
Ba    3.255614  -0.118795  2.351179
