35
Energy: -243351.983727 eV PBE+vdW (tier 2 basis)
C    0.034701  0.348291  0.496033
C    0.252564  0.577550  1.955832
O    1.362399  0.207900  2.517066
H    0.922808  -0.096614  0.040585
H    -0.207407  1.283506  -0.029176
H    -0.818316  -0.327226  0.329984
N    -0.684982  1.158409  2.692527
C    -1.984573  1.653584  2.188992
C    -1.880696  2.972457  1.356550
O    -2.422152  2.970159  0.257788
H    -0.461832  1.304393  3.677188
H    -2.328318  0.930352  1.439717
C    -3.048545  1.716135  3.304357
C    -4.424258  2.116246  2.737947
C    -5.541705  2.136015  3.797569
C    -6.871991  2.527590  3.156552
N    -8.004017  2.580274  4.174974
H    -2.747328  2.425990  4.090082
H    -3.113300  0.722750  3.775365
H    -4.697252  1.419846  1.930286
H    -4.354686  3.107902  2.267212
H    -5.287909  2.852031  4.596125
H    -5.632916  1.143761  4.268271
H    -7.189528  1.808870  2.390826
H    -6.833545  3.523553  2.697909
H    -8.895918  2.840327  3.727931
H    -7.819883  3.272971  4.915044
H    -8.146906  1.669490  4.634929
N    -1.246169  4.059365  1.867161
C    -0.546781  4.239877  3.131480
H    -1.249853  4.848965  1.224000
H    -0.443995  5.313490  3.318737
H    0.466569  3.809293  3.118570
H    -1.107774  3.825167  3.978299
Ba    3.481564  -0.709404  2.915014
