35
Energy: -243352.240136 eV PBE+vdW (tier 2 basis)
C    -0.819236  0.779638  0.095243
C    -0.461584  0.490296  1.514472
O    0.774553  0.645032  1.892604
H    -0.200559  0.160247  -0.568407
H    -0.589245  1.829719  -0.132880
H    -1.872064  0.594366  -0.132492
N    -1.342169  0.088438  2.401083
C    -2.802065  -0.097096  2.337679
C    -3.200372  0.148193  3.828803
O    -2.369540  -0.145737  4.693959
H    -1.055135  -0.077746  3.389498
H    -3.247704  0.653670  1.671325
C    -3.122342  -1.551015  1.892388
C    -4.591354  -2.016077  1.952470
C    -5.512891  -1.451864  0.858512
C    -6.973216  -1.898591  0.937307
N    -7.176443  -3.370726  0.588390
H    -2.534232  -2.214576  2.542258
H    -2.729897  -1.688342  0.872488
H    -5.012414  -1.798493  2.945866
H    -4.552377  -3.115204  1.880680
H    -5.110756  -1.674704  -0.143898
H    -5.554519  -0.352711  0.912301
H    -7.598197  -1.342326  0.228821
H    -7.394310  -1.770784  1.942692
H    -8.174734  -3.624657  0.638250
H    -6.672378  -3.998146  1.230369
H    -6.857678  -3.581566  -0.368551
N    -4.429338  0.630379  4.067829
C    -4.928548  0.902316  5.419515
H    -4.976687  0.971680  3.284587
H    -5.995333  0.661092  5.470460
H    -4.785615  1.958083  5.683098
H    -4.377419  0.279434  6.129159
Ba    2.983375  1.067314  2.479583
