35
Energy: -243351.535633 eV PBE+vdW (tier 2 basis)
C    -0.846764  -0.099613  -0.327285
C    -0.765463  -0.265540  1.157933
O    0.237465  -0.895305  1.676696
H    0.043028  0.432365  -0.692316
H    -1.733010  0.456189  -0.651886
H    -0.869413  -1.087499  -0.809379
N    -1.739973  0.235455  1.902998
C    -1.909807  0.186072  3.364477
C    -3.333526  -0.347327  3.740730
O    -4.055681  0.329979  4.464657
H    -2.477441  0.708147  1.382867
H    -1.173403  -0.542045  3.732992
C    -1.607281  1.542937  4.045992
C    -2.191196  2.853272  3.469870
C    -3.710075  3.112691  3.526213
C    -4.347591  3.252398  4.908335
N    -4.186967  4.656909  5.489827
H    -1.895389  1.414708  5.097777
H    -0.513801  1.661926  4.042698
H    -1.878208  2.966854  2.419792
H    -1.655107  3.668433  3.983449
H    -4.260863  2.302863  3.033788
H    -3.930780  4.013481  2.929746
H    -5.428541  3.079946  4.862512
H    -3.931956  2.557203  5.644742
H    -4.635056  5.365283  4.890497
H    -4.626612  4.724368  6.419527
H    -3.200303  4.927143  5.599204
N    -3.713884  -1.558353  3.267208
C    -2.954297  -2.555849  2.528705
H    -4.649434  -1.823921  3.571509
H    -2.991931  -2.391233  1.441514
H    -3.385353  -3.541444  2.732227
H    -1.907490  -2.583010  2.861288
Ba    2.293400  -2.056593  1.764481
