35
Energy: -243351.498860 eV PBE+vdW (tier 2 basis)
C    0.562469  -0.849733  1.542396
C    0.156140  -0.755946  2.987521
O    0.948377  -0.413901  3.863133
H    -0.257496  -1.016853  0.837049
H    1.266839  -1.692196  1.458043
H    1.126039  0.043543  1.248419
N    -1.128069  -1.168275  3.369651
C    -2.384403  -0.795588  2.701190
C    -2.847634  -1.883518  1.711003
O    -3.903325  -1.722995  0.989434
H    -1.197289  -1.192463  4.386704
H    -3.156121  -0.845559  3.490575
C    -2.409322  0.651010  2.144466
C    -2.543731  1.764716  3.209697
C    -1.420214  1.973404  4.247598
C    -0.126763  2.573640  3.684187
N    1.044137  2.273018  4.596482
H    -3.280104  0.742710  1.480212
H    -1.533956  0.811687  1.500186
H    -3.474300  1.597102  3.772832
H    -2.702694  2.709280  2.668003
H    -1.191310  1.031983  4.766046
H    -1.810899  2.648327  5.022542
H    0.150775  2.157780  2.708155
H    -0.194597  3.662573  3.577517
H    0.862567  2.564799  5.566872
H    1.902293  2.751961  4.290028
H    1.220209  1.240938  4.577850
N    -2.168076  -3.008019  1.692675
C    -2.478016  -4.195940  0.902264
H    -1.378422  -3.032127  2.344463
H    -1.678426  -4.928787  1.042257
H    -2.530573  -3.944803  -0.165032
H    -3.420296  -4.650643  1.237932
Ba    -5.884011  -1.835169  -0.299019
