35
Energy: -243352.074992 eV PBE+vdW (tier 2 basis)
C    -0.794452  1.245774  0.136774
C    -0.524468  0.899374  1.571014
O    0.626228  0.710288  2.001264
H    -0.395890  2.250410  -0.064025
H    -1.854389  1.224342  -0.139440
H    -0.229715  0.559205  -0.506480
N    -1.610066  0.808107  2.405177
C    -1.577553  0.363982  3.805270
C    -0.841413  1.362793  4.726225
O    -1.434351  1.845129  5.775396
H    -2.519481  1.040490  2.020130
H    -2.623294  0.374755  4.138489
C    -1.014374  -1.067965  4.032605
C    -1.740721  -2.214698  3.290843
C    -1.187875  -2.535102  1.889290
C    -1.806764  -3.748756  1.196328
N    -1.318747  -5.082788  1.757338
H    -1.084812  -1.253901  5.114463
H    0.055919  -1.085001  3.788286
H    -2.820432  -2.006294  3.222796
H    -1.653320  -3.102230  3.938115
H    -0.090922  -2.640600  1.919697
H    -1.375332  -1.694357  1.207853
H    -1.544500  -3.771803  0.132174
H    -2.900824  -3.769967  1.280336
H    -0.297667  -5.181475  1.659313
H    -1.749649  -5.873123  1.254241
H    -1.548172  -5.197476  2.753924
N    0.392062  1.675496  4.423941
C    1.237166  2.592702  5.176727
H    0.725715  1.257315  3.500953
H    2.220546  2.632375  4.699712
H    1.372213  2.240678  6.209208
H    0.817301  3.609413  5.172440
Ba    -2.122561  3.068262  7.639217
