35
Energy: -243352.658307 eV PBE+vdW (tier 2 basis)
C    -0.179807  -0.614030  0.033098
C    -0.201175  -0.398940  1.508420
O    0.842617  -0.072523  2.145207
H    0.571907  -1.375974  -0.214394
H    0.141534  0.316549  -0.456757
H    -1.147744  -0.916707  -0.379628
N    -1.365002  -0.552722  2.178285
C    -1.464925  -0.214691  3.602975
C    -0.604009  -1.169423  4.473346
O    0.394985  -0.651689  5.062894
H    -2.202052  -0.743231  1.636655
H    -0.906683  0.726444  3.711651
C    -2.872379  0.169483  4.128906
C    -4.062127  -0.802299  4.297200
C    -4.870321  -1.127642  3.028018
C    -6.168272  -1.910841  3.255261
N    -7.296861  -1.070483  3.845405
H    -3.192362  1.027548  3.516189
H    -2.670483  0.596518  5.122121
H    -4.719684  -0.295928  5.022502
H    -3.754731  -1.728876  4.800472
H    -4.286283  -1.759592  2.339890
H    -5.090981  -0.206330  2.463108
H    -6.031753  -2.754969  3.943095
H    -6.562686  -2.301122  2.309768
H    -8.149548  -1.639671  3.964285
H    -7.546980  -0.280617  3.231811
H    -7.064150  -0.683950  4.771056
N    -0.833308  -2.472222  4.597318
C    -1.796048  -3.346119  3.931955
H    -0.181602  -2.940240  5.230054
H    -1.257459  -4.179226  3.463507
H    -2.335180  -2.805933  3.152543
H    -2.503437  -3.760996  4.660645
Ba    2.410755  0.361390  4.011607
