22
Energy: -240077.610315 eV PBE+vdW (tier 2 basis)
N    -0.34482  -0.95257  -0.38556
C    -0.22644  -0.29929  0.98120
C    1.28847  -0.09374  1.25563
O    1.70570  0.04060  2.43786
H    -1.20067  -0.67453  -0.88826
H    -0.32814  -1.98198  -0.33199
H    0.48595  -0.65073  -0.93519
H    -0.61062  0.72436  0.83951
C    -1.11385  -0.94056  2.06557
C    -0.88482  -2.36082  2.48778
N    0.03889  -2.74327  3.45798
C    -1.59935  -3.49884  2.19638
C    -0.10483  -4.04196  3.75089
N    -1.09140  -4.51077  2.98240
H    -2.16160  -0.85335  1.74254
H    -1.03723  -0.28459  2.94560
H    0.68961  -2.11856  3.93033
H    -2.45035  -3.65849  1.54332
H    0.46489  -4.60782  4.48162
H    -1.43331  -5.47282  3.00620
O    2.02915  0.04043  0.22511
Ba    4.00358  1.10372  1.56645
