22
Energy: -240076.774911 eV PBE+vdW (tier 2 basis)
N    -0.27153  -1.21511  -0.00292
C    -0.13720  -0.26102  1.07968
C    1.31272  0.21381  1.10270
O    1.72527  1.24676  0.49771
H    -0.38677  -0.82612  -0.93462
H    0.38172  -1.99542  0.00200
H    3.07898  -0.33241  1.63224
H    -0.73844  0.62043  0.82353
C    -0.69801  -0.79918  2.43618
C    -0.55101  -2.26023  2.73531
N    0.19583  -2.77096  3.79330
C    -1.18103  -3.34831  2.17887
C    0.03118  -4.09674  3.88759
N    -0.79779  -4.45598  2.90417
H    -1.77552  -0.58663  2.40293
H    -0.30468  -0.20160  3.27073
H    0.75028  -2.22968  4.45238
H    -1.88273  -3.41098  1.35659
H    0.47847  -4.75193  4.62762
H    -1.11620  -5.41094  2.74095
O    2.13882  -0.59252  1.73358
Ba    2.38467  3.34478  -0.60308
