22
Energy: -240077.355484 eV PBE+vdW (tier 2 basis)
N    -0.46234  1.04553  0.75318
C    0.01342  0.19393  1.88014
C    1.54511  0.22588  1.87327
O    2.18525  1.07047  1.22488
H    -0.65416  0.44136  -0.05547
H    -1.37883  1.43315  0.99808
H    3.09229  -0.57860  2.63561
H    -0.26735  0.70146  2.81886
C    -0.62741  -1.23899  1.86307
C    -0.59819  -2.07573  3.10759
N    -1.49553  -1.93444  4.16602
C    0.15498  -3.18077  3.41622
C    -1.30130  -2.90084  5.07270
N    -0.29752  -3.65965  4.62593
H    -0.16937  -1.82788  1.05572
H    -1.68025  -1.10018  1.57164
H    -2.24270  -1.24773  4.24513
H    0.95042  -3.67100  2.86826
H    -1.86103  -3.04414  5.99186
H    0.05934  -4.48438  5.10983
O    2.11263  -0.67596  2.63256
Ba    1.51455  3.00550  -0.23409
