22
Energy: -240077.859084 eV PBE+vdW (tier 2 basis)
N    0.63149  -0.54279  0.10784
C    0.12090  0.16951  1.35085
C    1.38839  0.72809  2.06863
O    2.49459  0.63701  1.44287
H    0.13144  -0.28476  -0.75296
H    0.60826  -1.56823  0.19296
H    1.63788  -0.25163  0.03122
H    -0.44159  1.04625  0.99807
C    -0.75602  -0.71090  2.26833
C    -2.12513  -1.08509  1.77859
N    -3.23321  -0.23919  1.82604
C    -2.60652  -2.28820  1.32266
C    -4.33223  -0.89010  1.42304
N    -3.95993  -2.13317  1.11043
H    -0.84248  -0.16184  3.21861
H    -0.21811  -1.63800  2.51808
H    -3.25308  0.71897  2.17073
H    -2.11365  -3.24191  1.17195
H    -5.33795  -0.48390  1.36796
H    -4.59793  -2.86063  0.78430
O    1.26045  1.27247  3.19691
Ba    3.75055  1.99344  3.38794
