22
Energy: -240077.322027 eV PBE+vdW (tier 2 basis)
N    0.25143  0.99824  1.45496
C    0.17974  -0.33153  2.11734
C    1.43977  -1.12994  1.74082
O    2.43517  -0.58460  1.23299
H    -0.24132  1.68583  2.03151
H    -0.28786  0.96290  0.58257
H    2.22725  -2.86858  1.85827
H    0.30484  -0.16674  3.20223
C    -1.11996  -1.14580  1.88035
C    -2.35028  -0.66916  2.60306
N    -3.62583  -0.91288  2.10079
C    -2.54987  -0.10164  3.83778
C    -4.55836  -0.52192  2.97849
N    -3.91415  -0.02272  4.03431
H    -0.93012  -2.18648  2.18451
H    -1.32184  -1.18631  0.79787
H    -3.84910  -1.35823  1.21167
H    -1.85515  0.22032  4.60355
H    -5.63422  -0.59540  2.85142
H    -4.37449  0.34797  4.86610
O    1.38663  -2.39440  2.05327
Ba    3.04171  1.75109  0.61215
