22
Energy: -240076.968986 eV PBE+vdW (tier 2 basis)
N    -0.89057  -0.62593  0.12456
C    -0.15985  -0.11868  1.26171
C    1.37775  -0.07627  1.11842
O    2.02489  -0.77838  0.30939
H    -0.86977  -0.01210  -0.68886
H    -0.61765  -1.56873  -0.15308
H    1.54618  1.30894  2.46429
H    -0.46506  0.93109  1.41639
C    -0.55170  -0.92773  2.54322
C    -1.97374  -0.71470  2.96548
N    -3.05897  -0.78767  2.10157
C    -2.50351  -0.49854  4.21325
C    -4.20051  -0.62065  2.77773
N    -3.87303  -0.44902  4.06238
H    0.09188  -0.67272  3.39617
H    -0.38056  -1.99672  2.33483
H    -2.96020  -0.89734  1.08982
H    -2.02917  -0.39423  5.18167
H    -5.20310  -0.61987  2.36329
H    -4.54648  -0.30706  4.81492
O    2.08434  0.74348  1.87227
Ba    4.24229  -1.28522  -0.73324
