22
Energy: -240076.907688 eV PBE+vdW (tier 2 basis)
N    -0.39645  1.59113  1.68037
C    0.05162  0.24811  1.39232
C    1.44561  0.50653  0.78044
O    2.46874  0.65008  1.49177
H    -0.79575  1.74014  2.60134
H    -0.92963  2.05971  0.95263
H    0.80007  0.54242  -1.04379
H    0.24401  -0.26755  2.34275
C    -0.87978  -0.62976  0.50127
C    -2.20182  -0.96491  1.12376
N    -2.45855  -2.14735  1.81403
C    -3.39173  -0.27941  1.12223
C    -3.73774  -2.18897  2.20875
N    -4.31011  -1.05518  1.79713
H    -0.36293  -1.56041  0.21920
H    -1.10275  -0.10187  -0.44146
H    -1.80474  -2.91270  1.96574
H    -3.66560  0.66884  0.67621
H    -4.21919  -2.99645  2.75113
H    -5.29132  -0.81883  1.94666
O    1.60723  0.69737  -0.51222
Ba    4.75181  1.43406  1.91775
