22
Energy: -240077.033517 eV PBE+vdW (tier 2 basis)
N    0.88652  -0.47295  0.21152
C    0.14945  -0.30529  1.48543
C    1.15891  0.15019  2.56813
O    2.32477  0.43625  2.25502
H    1.11939  -1.46265  0.08017
H    0.27212  -0.23860  -0.57208
H    -0.10809  0.08169  4.04128
H    -0.52554  0.55960  1.36313
C    -0.68697  -1.54792  1.93985
C    -1.83827  -1.96020  1.06937
N    -3.09284  -1.34907  1.07244
C    -1.96670  -3.04623  0.23861
C    -3.94191  -2.02742  0.28919
N    -3.26462  -3.05607  -0.22543
H    -1.07974  -1.38497  2.95659
H    -0.01428  -2.41356  2.03195
H    -3.37935  -0.54105  1.62190
H    -1.26188  -3.82653  -0.02372
H    -4.98679  -1.78852  0.11345
H    -3.66836  -3.75669  -0.84885
O    0.81864  0.29885  3.81959
Ba    3.70500  0.91098  0.29076
