22
Energy: -240077.044050 eV PBE+vdW (tier 2 basis)
N    -0.33933  0.76422  0.27523
C    -0.02271  0.11841  1.57469
C    1.48736  0.28357  1.83696
O    2.17180  1.04965  1.14507
H    -0.34509  0.05225  -0.46414
H    -1.30216  1.11381  0.30191
H    1.44387  -0.92748  3.32496
H    -0.51530  0.71911  2.35869
C    -0.54097  -1.35109  1.65840
C    -0.56680  -2.01251  3.01357
N    -0.48430  -3.39786  3.15002
C    -0.80813  -1.53854  4.28464
C    -0.67117  -3.75460  4.42637
N    -0.86145  -2.63322  5.12413
H    0.04326  -1.97714  0.96555
H    -1.57316  -1.34541  1.27224
H    -0.33129  -4.07030  2.39827
H    -0.98561  -0.53604  4.65698
H    -0.66049  -4.76755  4.82002
H    -1.03245  -2.60288  6.13087
O    2.06433  -0.35208  2.82395
Ba    1.78905  2.72789  -0.63651
