22
Energy: -240076.985661 eV PBE+vdW (tier 2 basis)
N    0.04868  -1.08467  0.03610
C    0.09031  -0.31394  1.27979
C    1.54099  -0.24008  1.78780
O    2.33739  0.65722  1.41589
H    0.44273  -0.59724  -0.76815
H    0.46071  -2.01732  0.10206
H    1.38857  -1.83911  2.86568
H    -0.20082  0.71922  1.04626
C    -0.89610  -0.90793  2.31401
C    -2.33924  -0.79969  1.92020
N    -2.85138  -1.21406  0.69635
C    -3.42281  -0.39740  2.66021
C    -4.18134  -1.07063  0.67905
N    -4.53730  -0.57798  1.86941
H    -0.78228  -0.40685  3.28554
H    -0.66723  -1.97879  2.47625
H    -2.27398  -1.53127  -0.08317
H    -3.49257  -0.01958  3.67320
H    -4.84586  -1.30675  -0.14544
H    -5.49813  -0.37677  2.14583
O    2.04566  -1.17757  2.56381
Ba    4.53301  1.80416  1.42265
