22
Energy: -240077.613603 eV PBE+vdW (tier 2 basis)
N    0.32483  -1.00062  -0.12432
C    0.04015  -0.25177  1.16504
C    1.33889  0.51553  1.54489
O    1.40817  1.07099  2.67462
H    -0.45236  -0.95721  -0.79896
H    0.54820  -1.99358  0.03774
H    1.16927  -0.54320  -0.53621
H    -0.66031  0.55279  0.89044
C    -0.66934  -1.07422  2.25537
C    -0.13062  -2.42617  2.63245
N    -0.99000  -3.42739  3.08022
C    1.13055  -2.96329  2.73182
C    -0.29843  -4.51351  3.44244
N    0.99104  -4.24544  3.22816
H    -1.72196  -1.19248  1.95878
H    -0.68742  -0.42633  3.14721
H    -2.00472  -3.35726  3.16118
H    2.10733  -2.54397  2.52697
H    -0.71101  -5.43997  3.83206
H    1.75095  -4.90036  3.41536
O    2.22143  0.64095  0.63508
Ba    3.40620  2.60124  2.04485
