22
Energy: -240077.176421 eV PBE+vdW (tier 2 basis)
N    -0.37108  0.27453  0.45242
C    0.14644  0.33478  1.84458
C    1.66988  0.46669  1.77649
O    2.22993  0.98507  0.79518
H    -1.36550  0.52312  0.46055
H    -0.34609  -0.69729  0.12243
H    3.26462  0.29209  2.81110
H    -0.14904  1.32462  2.24212
C    -0.43281  -0.66236  2.88704
C    -0.26670  -2.14630  2.70420
N    -1.35630  -3.01378  2.77433
C    0.83673  -2.96354  2.63275
C    -0.94701  -4.28753  2.75456
N    0.38437  -4.26632  2.65881
H    -1.50681  -0.43940  2.96343
H    -0.01715  -0.38302  3.86759
H    -2.33278  -2.74448  2.88824
H    1.89423  -2.73473  2.61419
H    -1.57828  -5.16943  2.80894
H    0.97123  -5.10093  2.63833
O    2.30599  0.06919  2.84780
Ba    1.31113  1.94503  -1.34707
