20
Energy: -169132.752923 eV PBE+vdW (tier 2 basis)
N    0.109462  0.826793  0.528594
C    0.213083  0.010816  1.767767
C    1.683955  -0.300306  2.143687
O    2.618278  -0.280004  1.320647
H    -0.766606  0.482153  -0.048610
H    -0.018539  1.821394  0.751603
H    -0.213601  0.597406  2.599070
C    -0.537864  -1.342739  1.621557
C    -2.072643  -1.273145  1.519907
C    -2.624901  -0.823281  0.186385
O    -2.013156  -0.090694  -0.608029
O    -3.833721  -1.276918  -0.048496
H    -0.300440  -1.955307  2.502607
H    -0.122284  -1.895797  0.763521
H    -2.502733  -0.611492  2.290762
H    -2.484968  -2.268298  1.736436
O    1.974617  -0.661330  3.361132
H    1.224107  -0.633812  3.989690
H    -4.181069  -0.930546  -0.899598
Cd    2.006417  0.580445  -0.608351
