20
Energy: -169132.043712 eV PBE+vdW (tier 2 basis)
N    0.255732  0.528796  0.256231
C    0.090472  0.069889  1.663680
C    1.451639  0.001755  2.396946
O    2.549458  -0.001065  1.815667
H    -0.093805  1.484999  0.130270
H    -0.277873  -0.063943  -0.387995
H    -0.507610  0.830158  2.194831
C    -0.607455  -1.315417  1.746140
C    -2.117694  -1.228969  1.470638
C    -2.811682  -2.585593  1.563916
O    -3.583593  -2.971775  0.710947
O    -2.492222  -3.260023  2.672072
H    -0.443247  -1.745896  2.743468
H    -0.112743  -2.004091  1.042069
H    -2.351646  -0.826894  0.475955
H    -2.611467  -0.577961  2.210665
O    1.468606  -0.087692  3.697633
H    0.589741  -0.052574  4.127949
H    -2.995783  -4.102507  2.704833
Cd    2.519209  0.454009  -0.338463
