20
Energy: -169133.209843 eV PBE+vdW (tier 2 basis)
N    -0.585538  0.990268  2.266856
C    0.673009  0.264523  1.824934
C    1.281760  1.250217  0.795563
O    0.711537  2.294115  0.541223
H    -1.451455  0.485960  2.040679
H    -0.545434  1.884864  1.687492
H    1.354029  0.202959  2.684998
C    0.401234  -1.125145  1.236059
C    0.036003  -2.248061  2.220001
C    1.201745  -2.849613  3.007552
O    2.220370  -2.144051  3.309299
O    1.097552  -4.073754  3.353747
H    1.290723  -1.411358  0.659931
H    -0.410563  -1.051834  0.494261
H    -0.435803  -3.078757  1.681037
H    -0.699098  -1.939000  2.982867
O    2.424104  0.814373  0.294084
H    2.780758  1.471364  -0.342755
H    -0.597345  1.233234  3.263821
Cd    3.064414  -3.981302  4.322352
