20
Energy: -169133.217074 eV PBE+vdW (tier 2 basis)
N    0.145170  0.306392  -0.542601
C    0.047946  -0.086302  0.921293
C    1.344609  0.489775  1.523088
O    2.218768  0.939967  0.812160
H    -0.509627  1.057805  -0.795894
H    -0.008859  -0.480675  -1.185785
H    -0.813538  0.438635  1.355381
C    -0.130382  -1.612409  1.054584
C    -0.400125  -2.124483  2.478831
C    0.786819  -2.689129  3.252486
O    1.913093  -2.879766  2.688657
O    0.571723  -3.021945  4.468928
H    0.737078  -2.130524  0.621129
H    -1.007959  -1.883803  0.449218
H    -1.103803  -2.970788  2.434000
H    -0.887426  -1.383241  3.126598
O    1.353528  0.439271  2.854034
H    2.162993  0.889234  3.178537
H    1.129459  0.669499  -0.651255
Cd    2.592531  -3.860514  4.596611
