20
Energy: -169132.350374 eV PBE+vdW (tier 2 basis)
N    -0.480467  0.153830  0.245412
C    -0.258167  -0.035060  1.636384
C    1.179956  0.237756  2.095213
O    1.489013  0.442461  3.315330
H    -0.554720  1.097352  -0.121423
H    -0.129951  -0.534592  -0.414254
H    -0.854935  0.715898  2.184563
C    -0.756771  -1.456906  2.050567
C    -0.489518  -2.009680  3.466959
C    -0.993175  -1.161116  4.621891
O    -1.875129  -1.640287  5.395851
O    -0.506738  0.015824  4.835777
H    -0.319214  -2.191068  1.356768
H    -1.834857  -1.448833  1.846787
H    0.585776  -2.166218  3.653736
H    -0.965891  -2.993698  3.542196
O    2.095754  0.278038  1.190878
H    2.989763  0.474079  1.557755
H    0.672348  0.353572  3.969733
Cd    -1.918661  0.066373  6.767311
