20
Energy: -169132.890834 eV PBE+vdW (tier 2 basis)
N    1.239662  -2.633594  3.970332
C    1.372607  -2.227768  2.508854
C    1.390600  -0.703825  2.429895
O    1.772771  -0.183381  1.345819
H    2.123836  -2.489670  4.482733
H    0.987035  -3.628647  4.067017
H    2.313120  -2.655483  2.142444
C    0.181605  -2.732567  1.646935
C    -1.076900  -1.823672  1.578462
C    -1.082818  -0.894859  0.382645
O    -1.050153  -1.175603  -0.766904
O    -1.225313  0.533306  0.747835
H    -0.115565  -3.724894  2.016503
H    0.566599  -2.899844  0.632457
H    -1.279180  -1.280299  2.508705
H    -1.950042  -2.471083  1.403323
O    0.817636  -0.059076  3.369981
H    0.525711  -2.053181  4.441659
H    -1.512480  0.966554  -0.088513
Cd    0.482269  1.596586  1.847817
