20
Energy: -169133.029307 eV PBE+vdW (tier 2 basis)
N    0.507608  -1.540032  0.080096
C    0.246437  -0.405534  1.050728
C    1.585314  -0.027471  1.721188
O    2.563530  -0.778643  1.661279
H    1.221608  -1.295417  -0.621594
H    -0.353314  -1.794206  -0.426098
H    -0.104544  0.450580  0.455602
C    -0.867014  -0.785613  2.076235
C    -0.819071  -2.190007  2.741156
C    0.613627  -2.555545  3.087731
O    1.161462  -2.051734  4.115680
O    1.286307  -3.213888  2.212875
H    -1.834294  -0.695792  1.561853
H    -0.866729  -0.011074  2.855075
H    -1.230673  -2.963500  2.082510
H    -1.427336  -2.160329  3.652575
O    1.658232  1.092374  2.398680
H    0.870286  1.671740  2.350665
H    0.847412  -2.379289  0.617761
Cd    3.165155  -2.415623  3.235000
