20
Energy: -169132.13314 eV PBE+vdW (tier 2 basis)
N    0.408919  -0.863659  0.230950
C    -0.006796  -0.215051  1.468854
C    1.034070  -0.526577  2.531338
O    1.357710  -1.715172  2.848398
H    -0.236870  -0.644662  -0.529582
H    1.335640  -0.563462  -0.079215
H    -0.059768  0.888882  1.398616
C    -1.419836  -0.712312  1.951976
C    -2.027266  -1.948472  1.277550
C    -1.428444  -3.329975  1.494221
O    -2.145639  -4.319555  1.127109
O    -0.271255  -3.537185  2.007978
H    -2.127440  0.102737  1.747475
H    -1.429811  -0.828734  3.044840
H    -2.087171  -1.845363  0.182673
H    -3.076203  -2.034339  1.598853
O    1.655211  0.387638  3.196556
H    1.419459  1.299127  2.923314
H    0.769633  -2.414089  2.388848
Cd    -0.686183  -5.806264  1.724550
