20
Energy: -169132.446641 eV PBE+vdW (tier 2 basis)
N    0.573526  0.145469  0.065939
C    -0.073606  0.158830  1.359803
C    1.031503  -0.145059  2.378430
O    1.391668  -1.289895  2.806755
H    1.040039  -0.716485  -0.210679
H    1.137136  0.964725  -0.153601
H    -0.412506  1.185287  1.561346
C    -1.286569  -0.785558  1.348628
C    -2.223765  -0.737158  2.588426
C    -2.776316  -2.086325  3.000386
O    -2.038974  -3.090224  3.233798
O    -4.044266  -2.296068  3.172542
H    -0.957865  -1.823286  1.114746
H    -1.859699  -0.521708  0.450149
H    -3.039356  -0.025979  2.406983
H    -1.699767  -0.354533  3.484424
O    1.740626  0.901364  2.697306
H    2.539584  0.674405  3.225649
H    -4.612495  -1.520107  2.985781
Cd    0.041932  -2.893112  3.011547
