20
Energy: -169132.408314 eV PBE+vdW (tier 2 basis)
N    0.507088  -1.096497  -0.348490
C    0.129375  -0.376106  0.929947
C    1.505369  0.025845  1.518350
O    2.528551  -0.327847  0.965033
H    1.570108  -1.118170  -0.297852
H    0.227160  -0.587197  -1.195768
H    -0.423397  0.534181  0.661512
C    -0.698657  -1.240200  1.902293
C    -2.082991  -1.550982  1.441527
C    -2.772691  -2.749154  1.673369
O    -3.698728  -3.080574  0.845030
O    -2.482047  -3.656853  2.617262
H    -0.760347  -0.641602  2.834183
H    -0.131440  -2.146173  2.173759
H    0.135730  -2.052019  -0.410247
H    -2.616664  -0.829540  0.821765
O    1.382125  0.745953  2.618212
H    2.266907  1.001107  2.960378
H    -1.900479  -3.308959  3.319139
Cd    -5.560782  -4.003052  1.502349
