20
Energy: -169131.903645 eV PBE+vdW (tier 2 basis)
N    -0.713488  0.163183  -0.008639
C    -0.214642  0.204959  1.341050
C    1.323110  -0.025133  1.331675
O    1.938783  -0.940950  1.927227
H    -1.683346  0.468662  -0.085519
H    -0.152585  0.686942  -0.680241
H    -0.358453  1.173623  1.868245
C    -0.765951  -0.940314  2.197330
C    -2.193938  -1.291682  2.582873
C    -2.133259  -2.577081  3.420872
O    -1.076273  -3.198138  3.701671
O    -3.230147  -3.094203  3.895184
H    -0.243775  -0.801126  3.166925
H    -0.426836  -1.826525  1.614651
H    -2.832671  -1.483880  1.706713
H    -2.679833  -0.508435  3.185490
O    1.952662  0.863233  0.617521
H    2.926546  0.717844  0.605900
H    -4.042267  -2.595682  3.666883
Cd    0.972280  -2.656184  3.057527
