20
Energy: -169132.474153 eV PBE+vdW (tier 2 basis)
N    -0.408338  1.019021  0.387090
C    -0.222221  0.281805  1.563997
C    1.322830  -0.259951  1.655758
O    2.017886  0.244752  2.568097
H    -0.228000  2.019042  0.396557
H    -0.421410  0.596516  -0.535737
H    -0.295099  0.969554  2.413396
C    -1.223493  -0.875616  1.836050
C    -1.112484  -2.258211  1.131003
C    -1.022555  -2.229467  -0.362285
O    0.042578  -1.853854  -0.965272
O    -1.981849  -2.556698  -1.160398
H    -2.214943  -0.442079  1.643781
H    -1.183224  -1.094663  2.911398
H    -1.983242  -2.852822  1.438985
H    -0.224010  -2.800234  1.489753
O    1.757613  -1.096014  0.815696
H    0.790950  -1.612883  -0.300328
H    -2.792966  -2.863905  -0.704687
Cd    3.961885  -0.704717  2.009121
