20
Energy: -169132.482682 eV PBE+vdW (tier 2 basis)
N    -0.092140  -0.271764  0.111508
C    0.010907  -0.487910  1.626802
C    1.466932  -0.408614  2.116993
O    2.373311  -1.201078  1.811638
H    -1.082971  -0.061286  -0.067577
H    0.398060  0.602597  -0.117146
H    -0.494367  0.383179  2.068529
C    -0.737745  -1.740188  2.176708
C    -0.094419  -3.160221  2.061060
C    0.327110  -3.294384  0.634645
O    -0.501351  -3.499009  -0.284217
O    1.544281  -2.892210  0.290156
H    -1.735180  -1.756913  1.713343
H    -0.906491  -1.551715  3.246123
H    -0.860847  -3.906483  2.300989
H    0.753098  -3.289741  2.743825
O    1.644051  0.582121  2.949485
H    2.559659  0.594295  3.315041
H    2.023920  -2.201561  1.048630
Cd    0.439987  -1.913607  -1.512767
