20
Energy: -169133.103558 eV PBE+vdW (tier 2 basis)
N    -1.089720  0.411481  0.882449
C    0.221183  0.338880  1.665224
C    1.180622  1.451412  1.169099
O    2.355965  1.432594  1.400020
H    -0.987753  0.013352  -0.062605
H    -1.352816  1.404124  0.757861
H    -0.045270  0.614352  2.698348
C    0.891176  -1.035467  1.615662
C    0.265586  -2.089631  2.535642
C    1.106412  -3.357759  2.693249
O    2.279784  -3.416618  2.202183
O    0.591540  -4.325778  3.348978
H    1.932080  -0.850792  1.914489
H    0.943728  -1.394847  0.576111
H    -0.731085  -2.430509  2.217865
H    0.142990  -1.707771  3.562825
O    0.488999  2.412612  0.518226
H    1.094383  3.141121  0.262738
H    -1.862301  -0.077870  1.353947
Cd    2.460498  -5.467886  3.072689
