20
Energy: -169133.82339 eV PBE+vdW (tier 2 basis)
N    0.255994  0.917023  0.303198
C    -0.155665  0.423194  1.651139
C    1.075000  -0.145694  2.366997
O    2.036410  -0.669872  1.771275
H    0.711170  1.834452  0.376477
H    -0.568580  1.056008  -0.290211
H    -0.525499  1.265201  2.255094
C    -1.297727  -0.631794  1.594328
C    -1.010316  -2.110634  1.209830
C    -0.865726  -2.463686  -0.253104
O    0.092937  -2.146265  -1.006128
O    -1.841575  -3.195624  -0.713761
H    -2.105891  -0.220765  0.970868
H    -1.712894  -0.668276  2.610449
H    -0.112402  -2.495457  1.721647
H    -1.848945  -2.704299  1.593035
O    0.989965  -0.071193  3.664842
H    1.769949  -0.470796  4.114479
H    -1.703312  -3.447134  -1.655760
Cd    1.635106  -0.749386  -0.425694
