20
Energy: -169132.877135 eV PBE+vdW (tier 2 basis)
N    1.172989  -1.070307  0.079010
C    0.075290  -0.317445  0.800615
C    0.810700  0.932299  1.359336
O    2.026104  0.946930  1.342085
H    1.328880  -2.006859  0.486093
H    2.029967  -0.480068  0.277441
H    -0.674471  -0.027842  0.052467
C    -0.614892  -1.149055  1.901432
C    0.124891  -1.378568  3.228769
C    1.201385  -2.456422  3.281811
O    1.569750  -2.839307  4.443484
O    1.718074  -2.957254  2.224425
H    -0.960444  -2.100114  1.470877
H    -1.540035  -0.613389  2.160912
H    -0.601544  -1.656395  4.005330
H    0.608280  -0.464002  3.613291
O    0.101941  1.910885  1.898854
H    -0.861369  1.839210  1.756361
H    1.013333  -1.146438  -0.932084
Cd    2.987169  -4.264860  3.633491
