20
Energy: -169132.831003 eV PBE+vdW (tier 2 basis)
N    0.686676  -0.814803  0.010126
C    0.558535  -0.296156  1.431846
C    1.707158  -1.063806  2.176402
O    2.212735  -0.612165  3.297027
H    1.275395  -0.212247  -0.581381
H    -0.211169  -0.955514  -0.471802
H    0.736522  0.787405  1.406090
C    -0.866256  -0.635699  1.934610
C    -1.232611  -0.315361  3.408099
C    -1.291051  1.158825  3.758847
O    -0.318983  1.819696  4.207158
O    -2.388598  1.845081  3.589139
H    -1.021632  -1.719163  1.818363
H    -1.589059  -0.135535  1.271366
H    -0.546652  -0.823449  4.101148
H    -2.219788  -0.762944  3.595181
O    2.097412  -2.098808  1.661876
H    1.194082  -1.735736  0.137518
H    -3.157953  1.309712  3.307607
Cd    1.660234  1.031667  4.410777
