20
Energy: -169133.504543 eV PBE+vdW (tier 2 basis)
N    1.255192  -0.780546  0.456110
C    0.400631  -0.051537  1.434618
C    1.343526  0.621322  2.442378
O    2.374992  0.059140  2.864861
H    0.687010  -1.355678  -0.172464
H    1.758742  -0.120866  -0.148522
H    -0.190369  0.722466  0.926389
C    -0.540604  -0.988489  2.273834
C    -1.024104  -2.322179  1.668308
C    -0.149120  -3.545853  1.901231
O    1.073088  -3.532696  2.173415
O    -0.686384  -4.734272  1.816611
H    -1.428151  -0.387303  2.506525
H    -0.083273  -1.204037  3.252483
H    -1.232155  -2.262743  0.585392
H    -2.007878  -2.540247  2.112192
O    0.937640  1.787287  2.849880
H    1.528131  2.170923  3.539621
H    -1.651679  -4.731273  1.653387
Cd    2.531764  -1.970418  1.949754
