20
Energy: -169131.799634 eV PBE+vdW (tier 2 basis)
N    0.113513  -0.249027  -0.005945
C    0.219221  -0.073741  1.383754
C    1.707613  -0.108243  1.901128
O    2.669919  -0.439363  1.285985
H    0.043731  0.556069  -0.622772
H    0.433869  -1.111252  -0.443568
H    -0.143379  0.934636  1.633243
C    -0.598410  -1.172585  2.176054
C    -1.693658  -0.614300  3.112121
C    -1.357013  -0.439215  4.573947
O    -2.292809  -0.635959  5.391883
O    -0.187758  -0.078849  5.013143
H    0.073233  -1.861750  2.704708
H    -1.115436  -1.780250  1.423457
H    -2.580195  -1.262120  3.074580
H    -2.056729  0.375574  2.780790
O    1.732580  0.306316  3.218573
H    2.667396  0.306765  3.520810
H    0.513341  0.068097  4.300724
Cd    -2.173845  -0.368586  7.576135
