20
Energy: -169131.462894 eV PBE+vdW (tier 2 basis)
N    0.961389  -1.515642  0.124097
C    0.607090  -0.596995  1.129661
C    1.611004  -0.600438  2.263810
O    1.435328  0.067514  3.349416
H    0.744904  -1.266937  -0.835587
H    0.894411  -2.511326  0.315491
H    0.674554  0.425372  0.714169
C    -0.905939  -0.733690  1.719432
C    -1.350422  0.325855  2.650125
C    -1.778854  0.087123  3.966643
O    -1.494750  -1.003481  4.589406
O    -2.444996  0.995678  4.700610
H    -1.016853  -1.735023  2.153347
H    -1.504438  -0.676390  0.798462
H    -1.422451  1.350641  2.273628
H    0.509108  0.458433  3.373010
O    2.687665  -1.283411  2.127565
H    3.297784  -1.202442  2.898848
H    -2.735004  1.770817  4.181175
Cd    -3.026859  -1.765201  5.959810
