33
Energy: -173898.996302 eV PBE+vdW (tier 2 basis)
C    1.615364  1.535177  1.826250
C    0.350922  0.857917  1.400841
O    0.277187  0.457023  0.197120
H    2.456319  0.843412  1.681961
H    1.598990  1.881045  2.865013
H    1.792162  2.392559  1.161930
N    -0.628731  0.733691  2.315133
C    -2.038971  0.283154  2.201202
C    -2.121377  -1.255716  2.232023
O    -1.763091  -1.968414  1.233795
H    -0.389466  1.106728  3.230138
H    -2.505893  0.658874  3.117681
C    -2.842334  0.933707  1.043006
C    -4.317293  1.000848  1.306131
C    -5.105567  -0.163881  1.401298
C    -4.924343  2.261578  1.473647
C    -6.460303  -0.070081  1.694554
C    -6.278794  2.353175  1.775314
C    -7.049976  1.189955  1.886786
H    -2.691226  0.387231  0.065896
H    -2.433086  1.937139  0.869692
H    -4.671983  -1.146900  1.207187
H    -4.328660  3.169926  1.375358
H    -7.071695  -0.969608  1.751259
H    -6.739883  3.329929  1.914465
H    -8.115859  1.262149  2.099980
N    -2.564498  -1.865927  3.317436
C    -3.068982  -1.275651  4.565380
H    -2.571082  -2.885314  3.252003
H    -3.945404  -0.644600  4.374233
H    -2.287435  -0.706531  5.083055
H    -3.374168  -2.097431  5.218894
Cd    -1.061846  -1.024158  -0.577661
