33
Energy: -173898.74837 eV PBE+vdW (tier 2 basis)
C    -0.009141  1.623013  1.205230
C    -0.165590  0.527451  2.208555
O    0.865965  -0.112978  2.615469
H    0.469998  1.233154  0.297139
H    0.677619  2.373171  1.623737
H    -0.952509  2.110258  0.937742
N    -1.392953  0.274685  2.674841
C    -1.859872  -0.560763  3.782498
C    -1.217255  -1.930887  3.908435
O    -0.821216  -2.590511  2.881322
H    -2.138179  0.876412  2.310422
H    -1.693598  -0.002422  4.716494
C    -3.410280  -0.768571  3.604632
C    -4.148514  0.532591  3.424052
C    -4.615305  0.911110  2.156699
C    -4.383401  1.387360  4.528619
C    -5.309132  2.111867  1.994260
C    -5.075939  2.582263  4.367328
C    -5.538127  2.950945  3.100443
H    -3.778371  -1.297500  4.493565
H    -3.570890  -1.427013  2.740549
H    -4.481633  0.245232  1.302114
H    -4.040300  1.097453  5.523647
H    -5.690113  2.392205  1.012955
H    -5.266277  3.223307  5.226727
H    -6.084820  3.883730  2.967823
N    -1.182012  -2.510074  5.102286
C    -1.627019  -2.001413  6.403046
H    -0.857309  -3.477968  5.081181
H    -1.359963  -0.945468  6.522188
H    -1.117880  -2.574340  7.183580
H    -2.710217  -2.127202  6.528757
Cd    1.138229  -2.175096  2.083661
