33
Energy: -173898.763297 eV PBE+vdW (tier 2 basis)
C    -0.616790  -0.052391  -0.278692
C    -0.294114  -0.187406  1.172624
O    0.833198  -0.692505  1.486387
H    0.100920  0.644684  -0.735093
H    -1.634120  0.313197  -0.455241
H    -0.479065  -1.021779  -0.774593
N    -1.196124  0.234187  2.075577
C    -0.952071  0.318669  3.510458
C    -1.002556  -1.067683  4.196935
O    0.090077  -1.503305  4.728235
H    -2.068165  0.631654  1.725179
H    0.104428  0.614130  3.633853
C    -1.712850  1.487366  4.206542
C    -3.212800  1.545830  4.093515
C    -4.021322  1.179241  5.188036
C    -3.829142  2.011857  2.919124
C    -5.409575  1.239127  5.096972
C    -5.219827  2.058317  2.820824
C    -6.013436  1.663353  3.908985
H    -1.273817  2.404169  3.783950
H    -1.411504  1.462431  5.263146
H    -3.553866  0.863364  6.122269
H    -3.226941  2.411662  2.098551
H    -6.023993  0.970955  5.955533
H    -5.690772  2.432056  1.912514
H    -7.098873  1.717012  3.836057
N    -2.066451  -1.844436  4.268296
C    -3.425371  -1.697234  3.748178
H    -1.880553  -2.724004  4.757773
H    -4.137502  -1.630288  4.578700
H    -3.656976  -2.589158  3.152241
H    -3.523254  -0.803164  3.131934
Cd    1.748206  -1.234909  3.374232
