33
Energy: -173899.054585 eV PBE+vdW (tier 2 basis)
C    -0.071339  -0.683590  0.184578
C    -0.548245  -0.014576  1.434533
O    -0.217710  -0.545960  2.542169
H    -0.373485  -0.164089  -0.730802
H    -0.466981  -1.708831  0.164520
H    1.023064  -0.766572  0.217102
N    -1.301454  1.090174  1.300200
C    -2.054649  1.896211  2.284946
C    -1.140046  2.818533  3.114499
O    -0.394390  2.387482  4.058160
H    -1.464148  1.361280  0.334340
H    -2.683791  2.547932  1.664472
C    -3.055016  1.114521  3.181713
C    -4.135681  0.377359  2.442554
C    -5.411656  0.966569  2.337832
C    -3.904899  -0.881819  1.856863
C    -6.416292  0.336225  1.612708
C    -4.914288  -1.517819  1.144594
C    -6.171980  -0.907588  1.016232
H    -3.503937  1.855687  3.859186
H    -2.531083  0.377834  3.845564
H    -5.612590  1.923562  2.821737
H    -2.947104  -1.386838  1.991528
H    -7.396349  0.802389  1.522041
H    -4.739900  -2.498774  0.704903
H    -6.968080  -1.416051  0.473664
N    -1.167665  4.112772  2.852239
C    -0.380759  5.119268  3.576907
H    -1.756020  4.436775  2.088808
H    0.665981  5.090403  3.248835
H    -0.427037  4.921544  4.652580
H    -0.802770  6.104592  3.363216
Cd    -0.330646  0.290102  4.513629
