33
Energy: -173898.557507 eV PBE+vdW (tier 2 basis)
C    -1.028367  -1.170520  0.278610
C    -0.315804  -0.499522  1.396174
O    0.942843  -0.667044  1.532475
H    -0.693762  -0.765761  -0.687593
H    -2.117221  -1.112844  0.365077
H    -0.724321  -2.228781  0.283009
N    -0.969758  0.274367  2.298274
C    -1.966588  1.295932  2.000442
C    -1.200502  2.638752  1.832188
O    0.076342  2.701681  1.699324
H    -0.463227  0.411727  3.175235
H    -2.401653  1.061603  1.017245
C    -3.096315  1.304105  3.069619
C    -4.291865  2.170214  2.742374
C    -4.602258  3.291784  3.544926
C    -5.139986  1.846936  1.664973
C    -5.728211  4.067727  3.275307
C    -6.261310  2.623100  1.394538
C    -6.558606  3.737935  2.198492
H    -2.672966  1.599585  4.040634
H    -3.422257  0.258132  3.167349
H    -3.972689  3.532186  4.403346
H    -4.941895  0.964674  1.053503
H    -5.968851  4.918283  3.911513
H    -6.921064  2.358842  0.569218
H    -7.444110  4.336640  1.988665
N    -1.905921  3.746575  1.782453
C    -1.348014  5.088280  1.580923
H    -2.918871  3.658850  1.932351
H    -2.170092  5.806756  1.625229
H    -0.860192  5.152992  0.601237
H    -0.616644  5.320067  2.363739
Cd    1.761133  1.338746  1.873151
