33
Energy: -173900.0722 eV PBE+vdW (tier 2 basis)
C    0.149616  -0.064814  0.970758
C    -0.632623  0.415437  2.156365
O    -0.438513  -0.172794  3.256889
H    0.023126  -1.150561  0.875424
H    1.216942  0.114430  1.163340
H    -0.128911  0.419613  0.029073
N    -1.475799  1.450888  1.939099
C    -2.385825  2.250053  2.793651
C    -1.670085  2.923411  3.980588
O    -1.203110  2.288068  4.976720
H    -1.466304  1.766639  0.973438
H    -2.682189  3.068206  2.128824
C    -3.750256  1.567064  3.160271
C    -3.707436  0.217108  3.835697
C    -3.660548  0.098960  5.250392
C    -3.692437  -0.963238  3.079713
C    -3.438121  -1.171975  5.860419
C    -3.534593  -2.219153  3.680972
C    -3.360221  -2.329283  5.059224
H    -4.303411  1.471210  2.216461
H    -4.310001  2.287893  3.774353
H    -3.857532  0.969344  5.882107
H    -3.801842  -0.903671  1.996238
H    -3.452881  -1.256231  6.948792
H    -3.538587  -3.116187  3.062642
H    -3.214358  -3.302201  5.526522
N    -1.565093  4.247603  3.976012
C    -2.000920  5.222505  2.967509
H    -1.102371  4.622261  4.805498
H    -3.091482  5.219646  2.849188
H    -1.509340  5.047062  2.002832
H    -1.704460  6.215100  3.317798
Cd    -1.300437  0.127609  5.199195
