33
Energy: -173899.222687 eV PBE+vdW (tier 2 basis)
C    0.271209  0.743284  0.637325
C    -0.245077  0.095872  1.876932
O    0.393659  0.190797  3.002979
H    -0.359158  0.552635  -0.236887
H    1.285736  0.368804  0.439507
H    0.352337  1.830815  0.781896
N    -1.339528  -0.636615  1.822371
C    -1.953870  -1.427980  2.882458
C    -2.695143  -2.548057  2.074421
O    -2.937211  -2.297535  0.888773
H    -1.801820  -0.873942  0.917346
H    -1.174361  -1.818614  3.547755
C    -3.032387  -0.632027  3.699599
C    -2.447516  0.539913  4.429127
C    -1.770872  0.359059  5.654168
C    -2.502175  1.831737  3.864256
C    -1.083813  1.407796  6.262174
C    -1.828603  2.904605  4.449992
C    -1.064631  2.701217  5.646754
H    -3.484605  -1.334406  4.412578
H    -3.820623  -0.308571  3.007136
H    -1.770577  -0.620881  6.132524
H    -3.078355  1.997981  2.953699
H    -0.582175  1.263601  7.219675
H    -1.904858  3.907484  4.027479
H    -0.651601  3.558205  6.184573
N    -3.053429  -3.679401  2.692080
C    -2.808463  -4.103151  4.066663
H    -3.571512  -4.321604  2.093081
H    -2.637330  -5.184751  4.077952
H    -3.667662  -3.883212  4.716094
H    -1.909561  -3.626685  4.472306
Cd    0.581976  1.869624  4.209215
