33
Energy: -173898.479594 eV PBE+vdW (tier 2 basis)
C    0.726960  -0.467162  1.451253
C    -0.158642  -0.865465  2.577815
O    0.288308  -0.839277  3.772590
H    1.712107  -0.924589  1.623366
H    0.894358  0.620416  1.463328
H    0.342460  -0.784720  0.477160
N    -1.430049  -1.281832  2.360645
C    -2.402058  -0.620198  1.498577
C    -3.104277  0.479363  2.348931
O    -2.866900  0.646628  3.592637
H    -1.841472  -1.801262  3.138179
H    -1.849191  -0.116115  0.692823
C    -3.390397  -1.645608  0.884746
C    -2.680782  -2.690214  0.059081
C    -2.158226  -2.359031  -1.212727
C    -2.535574  -4.001490  0.542462
C    -1.505017  -3.315833  -1.977425
C    -1.882774  -4.962754  -0.221700
C    -1.362872  -4.622543  -1.484403
H    -4.116713  -1.107551  0.257416
H    -3.968686  -2.118814  1.692262
H    -2.295291  -1.353309  -1.615707
H    -2.960582  -4.276792  1.508692
H    -1.120854  -3.061349  -2.964108
H    -1.783328  -5.982085  0.148701
H    -0.861027  -5.379624  -2.085852
N    -3.989303  1.254551  1.749028
C    -4.734358  2.332510  2.412776
H    -4.196933  1.078619  0.769301
H    -5.247289  2.917178  1.645037
H    -4.044589  2.979190  2.965483
H    -5.473033  1.913750  3.107144
Cd    -1.263978  0.109414  5.011493
