33
Energy: -173898.397887 eV PBE+vdW (tier 2 basis)
C    -0.376430  2.061033  0.995771
C    0.026818  0.905249  1.840255
O    1.236497  0.848493  2.251835
H    -1.423729  2.341875  1.131532
H    -0.194909  1.827724  -0.066308
H    0.278628  2.906536  1.241127
N    -0.826291  -0.080097  2.226462
C    -1.773509  -0.868038  1.422214
C    -0.953593  -1.888289  0.584211
O    0.291177  -2.126634  0.797577
H    -0.486896  -0.586793  3.044627
H    -2.326544  -1.471092  2.159751
C    -2.819921  -0.043713  0.629436
C    -4.027730  -0.845741  0.187115
C    -4.905808  -1.408518  1.136001
C    -4.313659  -0.998747  -1.185576
C    -6.029629  -2.115715  0.723107
C    -5.441905  -1.707232  -1.598937
C    -6.300540  -2.270137  -0.645830
H    -2.357502  0.433036  -0.243898
H    -3.160854  0.756668  1.303137
H    -4.727338  -1.268672  2.203931
H    -3.667717  -0.530009  -1.930346
H    -6.709188  -2.537472  1.462335
H    -5.663381  -1.807176  -2.660646
H    -7.187557  -2.815219  -0.966141
N    -1.586998  -2.579104  -0.338051
C    -0.979141  -3.630331  -1.161264
H    -2.581564  -2.364328  -0.483454
H    -1.741915  -4.006406  -1.847434
H    -0.622451  -4.450557  -0.527183
H    -0.137650  -3.227573  -1.736647
Cd    1.930228  -1.187019  1.857290
