33
Energy: -173898.942186 eV PBE+vdW (tier 2 basis)
C    -0.184273  2.241932  1.686849
C    -0.918786  0.994221  1.311261
O    -0.756363  0.555335  0.129140
H    -0.461156  3.038199  0.982299
H    0.894017  2.071560  1.564307
H    -0.387349  2.577149  2.709334
N    -1.705520  0.430991  2.244935
C    -2.660339  -0.694624  2.175983
C    -1.947335  -2.060013  2.152217
O    -1.407963  -2.531084  1.091913
H    -1.722640  0.935757  3.126690
H    -3.204322  -0.635648  3.125464
C    -3.760786  -0.594335  1.083392
C    -4.664925  0.599751  1.199954
C    -5.939730  0.434364  1.777345
C    -4.271725  1.872830  0.745377
C    -6.778487  1.529751  1.948534
C    -5.116603  2.964569  0.904391
C    -6.370929  2.796667  1.511514
H    -4.351760  -1.519383  1.153787
H    -3.327906  -0.593642  0.047857
H    -6.270377  -0.555276  2.096187
H    -3.320373  2.005860  0.228017
H    -7.757274  1.398914  2.407787
H    -4.817773  3.945872  0.538668
H    -7.039856  3.649787  1.618341
N    -1.914976  -2.799239  3.248030
C    -2.456562  -2.504575  4.582292
H    -1.445404  -3.699137  3.130048
H    -2.155724  -3.318741  5.247445
H    -3.552693  -2.464373  4.567781
H    -2.042285  -1.572216  4.983225
Cd    -1.300822  -1.350225  -0.694365
