37
Energy: -576759.486203 eV PBE+vdW (tier 2 basis)
C    -2.222815  1.679999  1.352011
C    -1.493925  0.861715  2.380469
O    -0.598166  1.272837  3.103061
H    -2.607237  1.084553  0.515114
H    -1.555300  2.463658  0.980182
H    -3.076424  2.182837  1.831028
N    -1.916810  -0.468228  2.522946
C    -1.326991  -1.342479  3.481473
C    -1.304498  -0.712935  4.953377
O    -0.236076  -0.749234  5.583524
H    -2.712225  -0.793738  1.980716
H    -1.949831  -2.248150  3.542605
C    0.160912  -1.738657  3.168952
C    0.284969  -2.595948  1.986210
C    0.240717  -4.029589  1.987831
C    0.463183  -2.214551  0.626881
N    0.382499  -4.479741  0.740452
C    0.520517  -3.400499  -0.150912
C    0.596156  -0.963711  -0.015641
C    0.691458  -3.395424  -1.518484
C    0.762491  -0.938892  -1.404770
C    0.810752  -2.125100  -2.140592
H    0.524502  -2.248021  4.074720
H    0.723752  -0.803088  3.061355
H    0.138470  -4.708566  2.830077
H    0.413243  -5.463201  0.476464
H    0.603269  -0.037423  0.558293
H    0.739368  -4.310201  -2.108337
H    0.876062  0.013925  -1.918786
H    0.954759  -2.083982  -3.219536
N    -2.450910  -0.239969  5.445853
C    -3.789122  -0.219804  4.859496
H    -2.358119  0.173573  6.372673
H    -3.926032  0.629972  4.178747
H    -4.508163  -0.121736  5.679264
H    -4.011797  -1.158384  4.340032
Hg    0.385362  0.638183  7.726252
