37
Energy: -576759.277138 eV PBE+vdW (tier 2 basis)
C    -1.243166  -0.442849  -0.414071
C    -0.348714  0.062356  0.686022
O    0.877504  -0.176081  0.619876
H    -0.716814  -1.222110  -0.972376
H    -2.187266  -0.842011  -0.019622
H    -1.471707  0.376014  -1.112761
N    -0.877846  0.749765  1.725707
C    -2.207719  1.291136  1.865470
C    -2.002476  2.751202  2.382242
O    -1.050375  2.958789  3.132335
H    -0.220110  1.172639  2.392060
H    -2.740927  1.254816  0.907993
C    -3.064486  0.553736  2.981586
C    -3.454815  -0.827475  2.637425
C    -2.608182  -1.977295  2.736155
C    -4.723264  -1.315265  2.201421
N    -3.300777  -3.070108  2.401371
C    -4.616667  -2.723699  2.060990
C    -5.970024  -0.699781  1.950097
C    -5.673389  -3.527507  1.683445
C    -7.050525  -1.496877  1.558456
C    -6.908798  -2.879977  1.425606
H    -3.956615  1.165439  3.164360
H    -2.457409  0.579281  3.898820
H    -1.570789  -2.036543  3.051467
H    -2.934629  -4.020339  2.422714
H    -6.099940  0.376014  2.066184
H    -5.583015  -4.609624  1.593623
H    -8.017302  -1.036246  1.363510
H    -7.764590  -3.484070  1.127328
N    -2.905429  3.667913  1.996555
C    -2.822611  5.072178  2.398014
H    -3.593550  3.413312  1.294900
H    -3.835958  5.477105  2.488213
H    -2.264258  5.661553  1.658209
H    -2.306622  5.132615  3.361117
Hg    2.950560  1.132710  1.319699
