37
Energy: -576759.431894 eV PBE+vdW (tier 2 basis)
C    -0.869872  -0.837791  0.569964
C    -0.430331  -0.301349  1.899567
O    0.738075  -0.378645  2.304954
H    -0.196086  -0.456092  -0.206903
H    -1.904630  -0.618386  0.294307
H    -0.747116  -1.930957  0.591598
N    -1.337324  0.306286  2.753686
C    -2.604616  0.902652  2.428642
C    -3.711050  -0.147840  2.031531
O    -4.547395  0.150597  1.179873
H    -0.894783  0.593795  3.627795
H    -2.966119  1.367398  3.356240
C    -2.559139  2.020368  1.297487
C    -2.976773  3.356746  1.739121
C    -2.114676  4.497092  1.840785
C    -4.275909  3.815908  2.118118
N    -2.820682  5.553762  2.244273
C    -4.166487  5.195506  2.429616
C    -5.546269  3.200358  2.175991
C    -5.243572  5.974349  2.797431
C    -6.651022  3.976281  2.550711
C    -6.506336  5.328573  2.860944
H    -3.279483  1.646100  0.541789
H    -1.554397  2.054092  0.863141
H    -1.051289  4.568383  1.630076
H    -2.441272  6.489481  2.380472
H    -5.666976  2.148903  1.915907
H    -5.149599  7.036642  3.020715
H    -7.637829  3.518986  2.595563
H    -7.378492  5.913388  3.150201
N    -3.685204  -1.302862  2.709201
C    -4.711052  -2.335598  2.562800
H    -2.982903  -1.414666  3.434412
H    -5.551683  -2.157108  3.246390
H    -4.266529  -3.309670  2.789792
H    -5.083323  -2.327205  1.533637
Hg    2.447306  -2.396982  1.930147
