37
Energy: -576759.534345 eV PBE+vdW (tier 2 basis)
C    -1.317499  0.611094  -0.840057
C    -1.753746  1.243248  0.442650
O    -2.070498  0.567985  1.458359
H    -0.232818  0.428424  -0.779622
H    -1.814994  -0.354369  -0.971983
H    -1.500896  1.250010  -1.712218
N    -1.774710  2.592417  0.522054
C    -1.946862  3.272750  1.779753
C    -0.904568  2.743357  2.817844
O    0.114093  2.173073  2.402104
H    -1.513266  3.134087  -0.296521
H    -1.700567  4.330028  1.603122
C    -3.463864  3.261725  2.243920
C    -4.126568  1.942483  2.239282
C    -4.007958  0.927358  3.259511
C    -5.084960  1.448412  1.310471
N    -4.812600  -0.084370  2.965712
C    -5.507139  0.172632  1.766971
C    -5.652862  1.977516  0.131513
C    -6.449031  -0.589456  1.111531
C    -6.603406  1.216252  -0.551964
C    -6.994271  -0.039375  -0.075047
H    -3.996464  3.940467  1.566656
H    -3.525711  3.715691  3.242759
H    -3.388679  0.932258  4.150920
H    -4.916134  -0.927764  3.527499
H    -5.370398  2.963027  -0.237973
H    -6.776678  -1.562053  1.476942
H    -7.056748  1.607583  -1.461007
H    -7.745533  -0.610510  -0.619246
N    -1.125808  2.990778  4.118839
C    -0.132994  2.664812  5.147197
H    -1.901882  3.581770  4.393378
H    -0.113441  1.585061  5.345347
H    -0.400675  3.188148  6.069059
H    0.864530  2.979608  4.819869
Hg    0.386087  -0.445790  2.554901
