37
Energy: -576759.725786 eV PBE+vdW (tier 2 basis)
C    0.179209  -0.378584  0.205573
C    -0.219444  -0.087060  1.619616
O    0.495367  0.639851  2.345049
H    0.255356  0.567860  -0.345800
H    -0.521906  -1.042803  -0.311821
H    1.179466  -0.830501  0.204478
N    -1.382051  -0.647706  2.080688
C    -1.825274  -0.313359  3.414543
C    -1.121769  -1.142935  4.512772
O    -0.360084  -0.548294  5.328902
H    -1.934732  -1.225156  1.454963
H    -1.376302  0.671393  3.550558
C    -3.324782  -0.029938  3.652681
C    -3.488154  0.773541  4.914644
C    -4.299572  0.406096  5.995222
C    -2.816233  1.967792  5.321078
N    -4.149390  1.288623  7.012232
C    -3.240984  2.260542  6.651873
C    -1.887311  2.883019  4.713007
C    -2.805166  3.366264  7.371623
C    -1.458478  4.036647  5.469049
C    -1.892675  4.251086  6.766346
H    -3.939007  -0.937407  3.701512
H    -3.681724  0.548033  2.784570
H    -4.979439  -0.436022  6.083078
H    -4.658104  1.255527  7.892140
H    -1.842411  2.959630  3.621474
H    -3.168279  3.558500  8.382001
H    -0.823247  4.771929  4.975819
H    -1.556531  5.130334  7.312674
N    -1.295137  -2.456882  4.612586
C    -2.077471  -3.348263  3.758114
H    -0.733240  -2.898577  5.341285
H    -2.513629  -4.138950  4.377535
H    -1.439016  -3.811178  2.994006
H    -2.897044  -2.813393  3.270857
Hg    0.182916  1.671386  4.683398
