37
Energy: -576760.251712 eV PBE+vdW (tier 2 basis)
C    -0.340515  1.388454  1.059336
C    -0.810692  0.335840  2.017834
O    -0.630000  0.565545  3.251053
H    -0.578522  1.166544  0.013529
H    0.745913  1.508349  1.166892
H    -0.797399  2.346914  1.338894
N    -1.401241  -0.754250  1.480574
C    -2.017768  -1.955514  2.082333
C    -3.128375  -1.561489  3.084104
O    -2.882829  -1.175480  4.246353
H    -1.439846  -0.730004  0.465820
H    -2.515838  -2.439210  1.233434
C    -0.953749  -2.993997  2.622049
C    -1.364675  -3.803163  3.819344
C    -2.344334  -4.806014  3.868919
C    -0.932910  -3.622973  5.152078
N    -2.543678  -5.200605  5.151392
C    -1.711048  -4.479894  5.984101
C    0.043578  -2.742202  5.783450
C    -1.611956  -4.474198  7.365485
C    0.113062  -2.763824  7.233023
C    -0.699157  -3.586386  7.983769
H    -0.014372  -2.465532  2.833394
H    -0.706517  -3.656015  1.780995
H    -2.905126  -5.261313  3.057899
H    -3.183733  -5.932976  5.444848
H    1.034884  -2.687662  5.304336
H    -2.226824  -5.134896  7.978388
H    0.873475  -2.155723  7.722082
H    -0.613424  -3.588055  9.068963
N    -4.378288  -1.658691  2.616238
C    -5.569301  -1.276709  3.374234
H    -4.515947  -1.966215  1.658445
H    -6.280922  -2.110141  3.393402
H    -6.049042  -0.407897  2.906682
H    -5.270678  -1.021271  4.393614
Hg    -0.586069  -0.825852  4.928904
