37
Energy: -576759.957341 eV PBE+vdW (tier 2 basis)
C    0.202269  2.014780  1.230896
C    0.128940  0.915193  2.239613
O    1.216047  0.226725  2.382990
H    0.430473  1.572738  0.250226
H    -0.734076  2.577694  1.159885
H    1.031238  2.690211  1.477200
N    -1.015383  0.721077  2.885548
C    -1.544434  -0.446644  3.596365
C    -2.936009  -0.662314  2.882206
O    -3.467503  0.333749  2.392535
H    -1.834134  1.258757  2.538589
H    -0.895974  -1.319917  3.424025
C    -1.862254  -0.227752  5.111853
C    -0.806331  0.304011  6.040905
C    -0.905603  1.535608  6.709646
C    0.411170  -0.265771  6.484295
N    0.171684  1.734940  7.505360
C    1.022413  0.655333  7.396479
C    1.146384  -1.496086  6.167160
C    2.227557  0.405230  8.028395
C    2.405231  -1.721904  6.861643
C    2.920171  -0.797114  7.742797
H    -2.228706  -1.194512  5.490779
H    -2.724998  0.451180  5.159230
H    -1.705369  2.269610  6.661185
H    0.311880  2.541321  8.108567
H    0.558422  -2.399415  5.956293
H    2.645395  1.115367  8.743725
H    2.923424  -2.665059  6.690210
H    3.862403  -0.997914  8.249772
N    -3.448469  -1.898617  2.913018
C    -4.758795  -2.237607  2.350293
H    -2.893649  -2.653718  3.302150
H    -5.385867  -2.705782  3.117667
H    -4.640657  -2.926743  1.505654
H    -5.233346  -1.316503  2.002476
Hg    1.562402  -0.886001  4.126368
