37
Energy: -576759.793196 eV PBE+vdW (tier 2 basis)
C    0.387806  -0.141688  0.432908
C    -0.177214  -0.473902  1.780462
O    0.353742  -1.227088  2.594270
H    0.817631  -1.047316  -0.009028
H    1.210398  0.576920  0.560558
H    -0.351582  0.290532  -0.251093
N    -1.395746  0.116014  2.130746
C    -1.799818  -0.064321  3.501805
C    -2.250801  -1.523867  3.756268
O    -2.000746  -2.117333  4.850731
H    -1.752566  0.900529  1.590890
H    -0.878281  0.021558  4.108379
C    -2.817447  1.000339  3.971724
C    -3.147736  0.995599  5.436809
C    -4.459055  0.957927  5.940484
C    -2.299993  1.035325  6.578953
N    -4.442739  0.961124  7.292091
C    -3.136487  1.000561  7.737256
C    -0.870550  1.078379  6.797158
C    -2.648742  1.046058  9.033849
C    -0.384483  1.137688  8.156496
C    -1.251662  1.110886  9.231973
H    -3.747209  0.917860  3.391692
H    -2.377820  1.979294  3.714992
H    -5.397290  0.939854  5.393535
H    -5.268707  0.970733  7.885564
H    -0.220239  1.493034  6.020047
H    -3.323559  1.040931  9.890837
H    0.687668  1.244850  8.317183
H    -0.859687  1.165595  10.246039
N    -2.940718  -2.124166  2.805060
C    -3.418654  -3.506285  2.858435
H    -3.085501  -1.588594  1.950582
H    -2.760834  -4.091275  3.508086
H    -3.404522  -3.920501  1.845856
H    -4.442866  -3.547139  3.250186
Hg    -0.417991  -1.121115  6.149215
