37
Energy: -576759.38165 eV PBE+vdW (tier 2 basis)
C    -0.268517  -0.089178  -0.116962
C    -0.324752  -0.485071  1.328360
O    0.469721  -1.268971  1.862074
H    -1.007025  0.671634  -0.391497
H    -0.431218  -0.984618  -0.732210
H    0.737259  0.287821  -0.345480
N    -1.357165  0.049572  2.080974
C    -1.646654  -0.424003  3.404067
C    -2.511023  -1.759110  3.299063
O    -1.888608  -2.738565  2.905706
H    -2.118350  0.475416  1.554470
H    -0.699253  -0.779969  3.831881
C    -2.280190  0.690706  4.313100
C    -1.228211  1.637680  4.737221
C    -0.448454  1.504293  5.925183
C    -0.734572  2.792919  4.068062
N    0.436666  2.504119  5.990166
C    0.308253  3.334582  4.866727
C    -1.098162  3.458669  2.876972
C    0.990269  4.486748  4.533016
C    -0.404871  4.616980  2.514156
C    0.616018  5.122947  3.323905
H    -2.710194  0.195579  5.193294
H    -3.091165  1.205329  3.778648
H    -0.515388  0.752257  6.706552
H    1.085474  2.657075  6.759832
H    -1.924142  3.101732  2.262938
H    1.773893  4.906035  5.163223
H    -0.676289  5.146956  1.602898
H    1.130429  6.037715  3.032490
N    -3.816990  -1.711395  3.576284
C    -4.683429  -2.894710  3.496590
H    -4.224181  -0.852636  3.927714
H    -4.246916  -3.604986  2.788454
H    -5.674069  -2.586457  3.147772
H    -4.774505  -3.374673  4.479034
Hg    2.914920  -1.909478  0.930867
