37
Energy: -576759.393217 eV PBE+vdW (tier 2 basis)
C    -1.000829  4.546289  3.713501
C    -1.191291  3.116611  3.290598
O    -1.010834  2.204754  4.126748
H    -1.309585  5.270296  2.951314
H    -1.564975  4.722441  4.637688
H    0.060016  4.701126  3.953068
N    -1.562134  2.895696  2.002507
C    -1.911754  1.596918  1.433240
C    -0.666241  0.942370  0.785871
O    0.082780  0.201663  1.471533
H    -1.607712  3.709030  1.395436
H    -2.167507  0.944935  2.279233
C    -3.151161  1.694578  0.503591
C    -4.414579  1.939401  1.262636
C    -5.068206  3.187205  1.418393
C    -5.209515  0.984902  1.960289
N    -6.180817  3.022846  2.154591
C    -6.317747  1.679692  2.515812
C    -5.115228  -0.414055  2.150192
C    -7.310681  1.049940  3.241724
C    -6.108462  -1.063684  2.886131
C    -7.184234  -0.349411  3.422904
H    -3.235870  0.748655  -0.050974
H    -3.008987  2.489781  -0.244982
H    -4.799881  4.159100  1.015350
H    -6.843161  3.760697  2.382215
H    -4.294482  -0.986199  1.716930
H    -8.162173  1.589221  3.655481
H    -6.053774  -2.140481  3.035364
H    -7.952402  -0.876017  3.987470
N    -0.380541  1.202067  -0.487154
C    0.803496  0.668157  -1.170435
H    -1.033424  1.751797  -1.035594
H    1.680485  0.773646  -0.523340
H    0.956021  1.233973  -2.093267
H    0.664486  -0.393188  -1.411490
Hg    -0.093100  -0.064751  3.887423
