37
Energy: -576759.281925 eV PBE+vdW (tier 2 basis)
C    -0.858180  0.397289  -0.588992
C    -0.507914  0.388784  0.876403
O    0.615217  0.848247  1.204482
H    0.022013  0.693662  -1.165440
H    -1.189197  -0.593886  -0.924915
H    -1.659068  1.127024  -0.777502
N    -1.379789  -0.088731  1.780595
C    -2.725823  -0.587778  1.573957
C    -3.503957  -0.202592  2.855506
O    -2.919714  -0.248482  3.934950
H    -1.134168  -0.039483  2.775621
H    -3.166496  -0.141495  0.673131
C    -2.718583  -2.159577  1.431947
C    -4.070972  -2.773320  1.439764
C    -4.778797  -3.163743  2.622944
C    -4.910245  -3.124427  0.348984
N    -5.945665  -3.716226  2.282496
C    -6.084525  -3.722651  0.884889
C    -4.772713  -3.028225  -1.057196
C    -7.103557  -4.214035  0.098082
C    -5.797796  -3.515052  -1.868710
C    -6.940172  -4.095048  -1.306786
H    -2.129284  -2.550632  2.272554
H    -2.186166  -2.414170  0.506378
H    -4.466051  -3.074678  3.659901
H    -6.620639  -4.103842  2.938899
H    -3.879436  -2.592324  -1.504196
H    -7.993974  -4.682565  0.516027
H    -5.707694  -3.452134  -2.951601
H    -7.726167  -4.475144  -1.958240
N    -4.819811  0.081759  2.699514
C    -5.688775  0.441934  3.816704
H    -5.173626  0.224618  1.758318
H    -6.661097  -0.052576  3.709349
H    -5.847710  1.528474  3.848018
H    -5.208865  0.129020  4.748193
Hg    1.626712  1.506572  3.358019
