37
Energy: -576759.378448 eV PBE+vdW (tier 2 basis)
C    -1.666244  2.227383  1.585228
C    -1.131510  1.266268  2.609984
O    -0.302638  1.611010  3.460936
H    -2.208007  3.028732  2.105718
H    -0.824967  2.703674  1.066426
H    -2.335653  1.763348  0.852084
N    -1.631986  -0.014889  2.580893
C    -1.173351  -1.069304  3.461595
C    -1.170891  -0.612711  4.957267
O    -0.160858  -0.666672  5.683643
H    -2.301866  -0.249367  1.854983
H    -1.914881  -1.879165  3.394264
C    0.223765  -1.658696  3.075557
C    0.176955  -2.503186  1.858756
C    -0.005920  -3.919907  1.848118
C    0.293024  -2.114132  0.495683
N    -0.002930  -4.361969  0.585420
C    0.177064  -3.287990  -0.298121
C    0.512905  -0.873188  -0.147540
C    0.255797  -3.274838  -1.674934
C    0.586967  -0.840702  -1.542035
C    0.462032  -2.014038  -2.292070
H    0.579178  -2.239306  3.937046
H    0.920086  -0.823135  2.932969
H    -0.114362  -4.600851  2.687744
H    -0.090363  -5.338408  0.310135
H    0.649122  0.039640  0.431636
H    0.171726  -4.180092  -2.275364
H    0.762296  0.103860  -2.053810
H    0.535666  -1.969411  -3.377915
N    -2.366230  -0.244325  5.437749
C    -2.594967  0.155154  6.821539
H    -3.176303  -0.312918  4.826432
H    -2.871165  -0.712684  7.437466
H    -3.410980  0.884727  6.848855
H    -1.677148  0.591737  7.226881
Hg    1.648349  1.053216  5.316249
