37
Energy: -576759.719712 eV PBE+vdW (tier 2 basis)
C    0.055870  -0.549289  1.717764
C    -1.004212  0.292583  2.370190
O    -0.943034  1.519807  2.425587
H    0.075321  -0.326875  0.642210
H    -0.052841  -1.627293  1.869079
H    1.029294  -0.236858  2.118489
N    -2.113562  -0.307597  2.972297
C    -2.714250  -1.584202  2.698340
C    -1.968349  -2.809759  3.302768
O    -2.192274  -3.937810  2.829703
H    -2.728895  0.401514  3.373250
H    -3.683305  -1.575636  3.221074
C    -3.018661  -1.881734  1.178718
C    -3.638191  -3.209333  0.990307
C    -2.980413  -4.351194  0.397241
C    -4.974915  -3.626418  1.256001
N    -3.830525  -5.362847  0.332677
C    -5.086985  -4.982037  0.852286
C    -6.109722  -2.974588  1.781440
C    -6.251846  -5.708469  0.957127
C    -7.300582  -3.693617  1.898467
C    -7.371343  -5.032637  1.499554
H    -2.094519  -1.804841  0.594945
H    -3.701128  -1.089818  0.839840
H    -1.957027  -4.433823  0.044709
H    -3.608808  -6.286559  -0.035751
H    -6.072752  -1.926638  2.078834
H    -6.327336  -6.747207  0.637934
H    -8.188543  -3.207619  2.298617
H    -8.312093  -5.572905  1.597778
N    -1.184237  -2.583669  4.353438
C    -0.516036  -3.638801  5.116405
H    -1.143313  -1.625649  4.694412
H    -0.240308  -4.454967  4.441498
H    -1.176878  -4.031682  5.899946
H    0.383334  -3.222076  5.579524
Hg    1.258567  3.243628  2.721332
