37
Energy: -576759.859131 eV PBE+vdW (tier 2 basis)
C    0.704306  -0.928128  0.700474
C    0.392324  -0.880590  2.160610
O    1.159176  -1.604110  2.911906
H    0.597504  -1.966860  0.355659
H    0.040787  -0.286499  0.111622
H    1.750795  -0.642854  0.534559
N    -0.627829  -0.133702  2.568598
C    -1.421003  -0.167996  3.800945
C    -2.890182  -0.297541  3.247655
O    -3.106680  0.191207  2.139708
H    -1.230896  0.265280  1.824697
H    -1.159087  -1.055251  4.396212
C    -1.400939  1.145979  4.647682
C    -0.093163  1.733817  5.100420
C    0.372570  2.997267  4.699240
C    0.882070  1.243790  6.001576
N    1.556761  3.279630  5.291952
C    1.922793  2.224357  6.100392
C    1.054111  -0.006778  6.750843
C    3.033724  2.067812  6.910063
C    2.232740  -0.124173  7.596574
C    3.181986  0.871979  7.655069
H    -2.038223  0.958052  5.525513
H    -1.928721  1.909311  4.059348
H    -0.098224  3.710430  4.028032
H    2.075519  4.146684  5.178150
H    0.149524  -0.497195  7.134797
H    3.789171  2.851511  6.985848
H    2.334112  -1.016369  8.213971
H    4.050716  0.755397  8.300736
N    -3.820631  -0.875576  4.023472
C    -3.639960  -1.562585  5.298622
H    -4.752593  -0.876142  3.612579
H    -4.605062  -1.980968  5.598040
H    -3.320679  -0.878585  6.097645
H    -2.933312  -2.399979  5.215800
Hg    1.344061  -1.203158  4.963199
