21
Energy: -33479.0729285 eV PBE+vdW (tier 2 basis)
N    0.830275  -0.281700  0.228370
C    0.031499  -0.159311  1.425667
C    0.912995  0.263456  2.577167
O    1.983727  0.766781  2.558413
H    0.320852  0.025766  -0.599186
H    1.699387  0.249562  0.281718
H    -0.728529  0.651816  1.381392
C    -0.754194  -1.488017  1.658957
C    0.091835  -2.687609  1.952493
N    0.268520  -3.168929  3.257543
C    0.826333  -3.469086  1.098709
C    1.089951  -4.225728  3.168946
N    1.434911  -4.419915  1.886221
H    -1.334997  -1.661445  0.742945
H    -1.558136  -1.338479  2.416174
H    0.961271  -3.423353  0.025481
H    1.431188  -4.848779  3.988210
H    2.045136  -5.162913  1.550311
O    0.268528  0.066728  3.905499
H    0.792372  0.668992  4.478457
Ca    -0.723524  -1.811825  4.733304
