21
Energy: -33480.8117102 eV PBE+vdW (tier 2 basis)
N    -0.500971  0.208941  -0.059904
C    0.086582  0.274661  1.276986
C    1.621669  0.318423  1.316337
O    2.233321  0.359908  2.446879
H    -2.388116  -0.223057  0.405317
H    -0.345829  1.074200  -0.578939
H    -0.228993  1.224727  1.741646
C    -0.441277  -0.881185  2.167311
C    -1.924746  -0.838880  2.353610
N    -2.785618  -0.527787  1.313553
C    -2.722591  -1.110626  3.436090
C    -4.053523  -0.595228  1.723793
N    -4.028066  -0.954997  3.013690
H    0.043547  -0.847413  3.149879
H    -0.162148  -1.842912  1.705069
H    -2.476079  -1.401784  4.449015
H    -4.938376  -0.394744  1.131707
H    -4.855239  -1.091639  3.589947
O    2.298359  0.343241  0.226294
H    -0.079961  -0.539912  -0.614742
Ca    4.127206  0.525997  1.397087
