21
Energy: -33478.5868859 eV PBE+vdW (tier 2 basis)
N    0.157618  -0.018701  -0.060123
C    -0.009471  0.322127  1.320844
C    1.178729  -0.080551  2.285025
O    1.039661  -0.855239  3.266504
H    0.700742  0.663247  -0.585796
H    0.522430  -0.953133  -0.239265
H    -0.129599  1.412826  1.404268
C    -1.160989  -0.408901  2.014013
C    -2.629212  -0.599832  1.874355
N    -3.048000  -1.414755  2.941250
C    -3.694309  -0.281494  1.086858
C    -4.364299  -1.570644  2.779884
N    -4.775960  -0.905190  1.682743
H    -1.072209  0.023997  3.033849
H    -0.779930  -1.456100  1.987616
H    -3.784293  0.307024  0.182468
H    -5.030642  -2.139835  3.419168
H    -5.735354  -0.868161  1.345031
O    2.331788  0.418415  1.933628
H    3.056314  0.120002  2.526805
Ca    -0.945765  -1.851055  4.144403
