21
Energy: -33480.3272596 eV PBE+vdW (tier 2 basis)
N    -0.718331  0.145319  0.089670
C    -0.039211  -0.403280  1.258292
C    1.170281  -1.092051  0.620667
O    2.314653  -0.507985  0.614386
H    -1.370851  -0.507439  -0.341562
H    -1.186495  1.028717  0.278429
H    0.345742  0.442328  1.843170
C    -0.907733  -1.323717  2.142850
C    -0.341132  -1.650307  3.487481
N    -1.004403  -2.484062  4.382568
C    0.787412  -1.236423  4.150225
C    -0.328900  -2.576101  5.534207
N    0.764492  -1.822462  5.402545
H    -1.124149  -2.254874  1.594711
H    -1.873389  -0.812960  2.287245
H    1.587908  -0.574109  3.847157
H    -0.616246  -3.151296  6.406902
H    1.464576  -1.695512  6.130090
O    1.008728  -2.178392  -0.051440
H    -1.889016  -2.955204  4.205107
Ca    2.845064  -1.709191  -1.106700
