21
Energy: -33480.8539023 eV PBE+vdW (tier 2 basis)
N    0.978563  0.336852  0.455701
C    0.476448  -0.009676  1.845633
C    1.669033  -0.566673  2.616744
O    1.500632  -0.861776  3.834455
H    1.888520  -0.167650  0.354712
H    1.156047  1.344619  0.347482
H    0.076473  0.898054  2.311276
C    -0.610707  -1.113784  1.840944
C    -0.216509  -2.485977  1.363968
N    0.774096  -3.300923  1.936781
C    -0.869060  -3.208855  0.392987
C    0.688581  -4.475064  1.304144
N    -0.285853  -4.450932  0.375368
H    -1.470019  -0.769227  1.248234
H    -0.967846  -1.164765  2.880285
H    -1.709383  -2.959025  -0.244462
H    1.301072  -5.352262  1.488119
H    -0.555329  -5.229402  -0.221794
O    2.686743  -0.942336  1.943034
H    0.333382  0.044587  -0.289647
Ca    2.610114  -2.717785  3.395035
