21
Energy: -33480.3146751 eV PBE+vdW (tier 2 basis)
N    -0.738838  -0.308355  -0.043863
C    -0.214793  -0.099554  1.273993
C    1.086403  0.695203  1.187454
O    1.651762  0.897865  0.061002
H    -0.198093  -0.951283  -0.619281
H    -1.717736  -0.584428  -0.044712
H    -0.920428  0.553926  1.814553
C    0.008352  -1.390463  2.170007
C    -0.275771  -1.229427  3.624048
N    0.275813  -0.228011  4.412637
C    -1.080052  -1.958752  4.464437
C    -0.160419  -0.331729  5.673804
N    -0.982852  -1.384501  5.715532
H    1.024652  -1.788046  2.022947
H    -0.674409  -2.155296  1.781279
H    -1.695357  -2.829448  4.275802
H    0.095985  0.314384  6.504596
H    -1.464374  -1.706307  6.552598
O    1.641608  1.183703  2.257951
H    0.899279  0.493091  4.037128
Ca    3.111188  2.193645  0.936583
