21
Energy: -33479.5409095 eV PBE+vdW (tier 2 basis)
N    0.282310  0.005465  -0.211912
C    -0.029272  0.157322  1.245498
C    1.221696  0.642771  1.959467
O    2.349107  0.399281  1.469442
H    -0.385765  -0.775199  -0.554635
H    -0.027043  0.855044  -0.698594
H    -0.860802  0.863405  1.394523
C    -0.428884  -1.227360  1.855066
C    -1.569138  -1.849024  1.118563
N    -1.501283  -1.982397  -0.259480
C    -2.750084  -2.383200  1.579712
C    -2.625172  -2.583807  -0.626909
N    -3.395073  -2.845545  0.458088
H    -0.678799  -1.101866  2.916514
H    0.455719  -1.889879  1.823477
H    -3.169490  -2.484470  2.573253
H    -2.912510  -2.843789  -1.639601
H    -4.295787  -3.316455  0.445465
O    1.178216  1.244668  3.115087
H    0.270648  1.431072  3.431091
Ca    2.587832  -0.428713  -0.502351
