21
Energy: -33480.3657989 eV PBE+vdW (tier 2 basis)
N    0.113422  -0.358436  0.011525
C    -0.058751  0.147915  1.377455
C    1.307391  0.713874  1.774960
O    1.516541  1.967041  1.605575
H    0.164870  0.412376  -0.656282
H    -0.692941  -0.921453  -0.264162
H    -0.755043  1.000765  1.459808
C    -0.589018  -0.955520  2.325854
C    -0.114899  -2.348066  2.064287
N    1.219147  -2.717050  2.003803
C    -0.828036  -3.505252  1.878664
C    1.331995  -4.030974  1.787276
N    0.090396  -4.522345  1.714070
H    -1.683393  -0.964794  2.237311
H    -0.379613  -0.679417  3.370466
H    -1.895751  -3.684506  1.862077
H    2.250632  -4.595717  1.684924
H    -0.133464  -5.503291  1.562016
O    2.271951  -0.019781  2.232983
H    1.979803  -2.036058  2.071752
Ca    3.537857  1.798835  2.301438
