21
Energy: -33480.5594669 eV PBE+vdW (tier 2 basis)
N    0.005051  -0.928767  -0.049295
C    0.120068  -0.522209  1.405124
C    0.915217  0.816789  1.323028
O    1.293241  1.300608  2.460942
H    0.605939  -1.723169  -0.301208
H    -0.953360  -1.137428  -0.349997
H    -0.895734  -0.306303  1.761910
C    0.782277  -1.608755  2.287176
C    0.371229  -1.639518  3.733434
N    0.758962  -0.721259  4.718127
C    -0.378813  -2.624233  4.330094
C    0.238961  -1.170337  5.868354
N    -0.448850  -2.306808  5.664107
H    1.877532  -1.534216  2.200452
H    0.515752  -2.595858  1.882768
H    -0.843069  -3.516691  3.927444
H    0.341512  -0.710681  6.846272
H    -0.927699  -2.846287  6.381905
O    1.125992  1.288747  0.213042
H    0.378710  -0.047562  -0.535000
Ca    1.817013  1.349026  4.422155
