21
Energy: -33479.5628054 eV PBE+vdW (tier 2 basis)
N    0.120170  -0.774389  0.039574
C    0.017633  -0.024595  1.260417
C    1.375778  0.245800  1.823389
O    2.424680  -0.315529  1.499656
H    -0.801557  -0.987861  -0.340891
H    0.648071  -0.289118  -0.686155
H    -0.536014  0.939251  1.214139
C    -0.703488  -0.884090  2.378060
C    -0.057913  -2.175088  2.776291
N    1.172048  -2.302161  3.446341
C    -0.612536  -3.424078  2.654412
C    1.316103  -3.612356  3.707035
N    0.262600  -4.302603  3.243450
H    -1.699000  -1.109906  1.973153
H    -0.887452  -0.255107  3.263316
H    -1.548867  -3.749251  2.216766
H    2.145434  -4.082956  4.226735
H    0.131781  -5.308638  3.326960
O    1.486924  1.001196  2.962170
H    0.661898  1.464157  3.218123
Ca    3.029977  -0.907612  3.555953
