21
Energy: -33479.5301583 eV PBE+vdW (tier 2 basis)
N    0.032871  -0.597670  -0.060629
C    0.009211  -0.008869  1.232435
C    1.399906  0.225490  1.746924
O    2.395226  -0.427911  1.428346
H    0.336155  -1.567516  -0.099862
H    -0.824615  -0.462616  -0.588506
H    -0.534753  0.947324  1.188782
C    -0.672970  -0.843618  2.428472
C    -0.046957  -2.148784  2.800804
N    1.192542  -2.304220  3.452522
C    -0.621897  -3.389716  2.671685
C    1.315973  -3.617311  3.701505
N    0.246055  -4.287218  3.243381
H    -1.694148  -1.036559  2.077122
H    -0.773343  -0.203985  3.320097
H    -1.574310  -3.693717  2.253360
H    2.143896  -4.105767  4.206683
H    0.097930  -5.291140  3.324947
O    1.591803  0.988414  2.879436
H    0.827546  1.545833  3.130656
Ca    3.054882  -0.897446  3.507838
