33
Energy: -609924.629038 eV PBE+vdW (tier 2 basis)
C    0.704965  0.169632  0.505133
C    -0.661927  0.049349  1.102447
O    -1.499279  -0.723760  0.560159
H    1.189018  -0.816556  0.533789
H    1.346127  0.899140  1.010598
H    0.607776  0.443618  -0.553716
N    -0.923458  0.787882  2.197960
C    -2.135798  0.912961  3.037332
C    -2.497709  -0.414552  3.717509
O    -3.018311  -1.379960  3.076301
H    -0.144863  1.361347  2.510067
H    -1.808599  1.594536  3.829946
C    -3.345021  1.658455  2.397406
C    -4.281465  0.995256  1.403382
C    -4.066509  1.093895  0.007525
C    -5.480321  0.382356  1.843077
C    -5.016710  0.610220  -0.906691
C    -6.430629  -0.093348  0.927120
C    -6.203667  0.024813  -0.448937
H    -2.927519  2.564647  1.936162
H    -3.954929  2.008458  3.242932
H    -3.167502  1.584031  -0.367054
H    -5.687415  0.311401  2.911609
H    -4.836253  0.719169  -1.975748
H    -7.356034  -0.536138  1.294284
H    -6.951451  -0.324157  -1.159982
N    -2.280788  -0.552347  5.019224
C    -1.682602  0.395217  5.969027
H    -2.561964  -1.460660  5.390963
H    -2.285619  1.306961  6.059831
H    -0.651873  0.644084  5.688886
H    -1.656676  -0.089081  6.949023
Pb    -3.593998  -1.625866  0.851433
