33
Energy: -609923.572778 eV PBE+vdW (tier 2 basis)
C    -0.984953  0.095279  -0.413300
C    -0.874611  0.107892  1.073479
O    0.255680  0.364227  1.618881
H    -1.995558  -0.134845  -0.766339
H    -0.283511  -0.649327  -0.815710
H    -0.675160  1.070942  -0.811445
N    -1.944290  -0.170196  1.815901
C    -1.962222  -0.234981  3.280228
C    -3.133354  -1.139377  3.811040
O    -3.717015  -0.802113  4.832199
H    -2.825787  -0.330318  1.329583
H    -1.030486  -0.739789  3.584688
C    -2.067334  1.156666  3.944846
C    -0.812524  1.718179  4.539378
C    -0.351184  3.019856  4.204087
C    -0.065378  0.996332  5.510158
C    0.756998  3.598344  4.862127
C    1.040459  1.579195  6.164989
C    1.448041  2.884134  5.852933
H    -2.799091  1.008854  4.766451
H    -2.513915  1.871666  3.243505
H    -0.900076  3.607682  3.466524
H    -0.393986  0.000317  5.812383
H    1.059830  4.614264  4.606588
H    1.564424  1.011609  6.934478
H    2.286886  3.340298  6.377282
N    -3.401582  -2.251992  3.096130
C    -4.429788  -3.208503  3.518638
H    -2.761820  -2.545505  2.365314
H    -4.761417  -3.780447  2.647017
H    -5.276148  -2.657926  3.939819
H    -4.041471  -3.895404  4.281919
Pb    1.554342  1.272987  3.223228
