33
Energy: -609923.716186 eV PBE+vdW (tier 2 basis)
C    -0.670345  -3.434929  0.267504
C    -0.813076  -2.218270  1.113321
O    0.124180  -1.346338  1.117608
H    -0.565365  -3.124355  -0.782245
H    -1.517744  -4.122583  0.356030
H    0.257117  -3.958623  0.536471
N    -1.921392  -2.044057  1.842357
C    -2.223865  -0.816668  2.587032
C    -1.350742  -0.712534  3.857025
O    -0.356243  0.109785  3.836681
H    -2.653522  -2.747051  1.757701
H    -1.877222  0.021940  1.963593
C    -3.729444  -0.568551  2.799274
C    -3.929962  0.790014  3.439763
C    -4.276962  0.906155  4.791092
C    -3.749016  1.955690  2.679961
C    -4.428268  2.163789  5.378662
C    -3.899828  3.212034  3.265825
C    -4.233257  3.317150  4.618884
H    -4.192019  -1.358121  3.404244
H    -4.202976  -0.605522  1.806110
H    -4.475423  0.012574  5.385378
H    -3.538444  1.886980  1.609205
H    -4.717893  2.241521  6.425765
H    -3.784036  4.110860  2.661306
H    -4.363733  4.298230  5.073342
N    -1.536846  -1.425970  4.947067
C    -2.541725  -2.442971  5.263211
H    -0.874891  -1.209388  5.695554
H    -2.897545  -2.943520  4.360259
H    -3.387585  -1.994144  5.798333
H    -2.071495  -3.190304  5.910915
Pb    1.010564  0.468180  2.111773
