33
Energy: -609923.395431 eV PBE+vdW (tier 2 basis)
C    -0.611089  -0.770570  0.018234
C    -0.232420  -0.378007  1.399255
O    0.993170  -0.476498  1.776971
H    -0.191474  -0.064261  -0.714006
H    -1.691051  -0.862378  -0.126272
H    -0.133527  -1.739912  -0.190324
N    -1.139754  0.075038  2.283219
C    -2.143009  1.092517  1.965431
C    -1.390596  2.442838  1.857482
O    -0.116864  2.529300  2.062493
H    -0.814994  0.091252  3.252187
H    -2.566056  0.867680  0.976308
C    -3.286769  1.082125  3.013934
C    -4.389917  2.074036  2.723058
C    -4.640206  3.134951  3.608486
C    -5.179956  1.951495  1.566562
C    -5.658283  4.053769  3.345308
C    -6.191669  2.875214  1.301000
C    -6.430630  3.928615  2.189561
H    -2.864379  1.278151  4.011292
H    -3.679134  0.054237  3.025502
H    -4.049321  3.230857  4.520995
H    -5.033137  1.112804  0.882170
H    -5.854301  4.861081  4.049749
H    -6.807256  2.762628  0.409498
H    -7.228442  4.641493  1.985811
N    -2.082208  3.513993  1.550006
C    -1.534784  4.867093  1.417849
H    -3.100560  3.390539  1.489651
H    -0.756566  4.887744  0.646313
H    -1.110426  5.203953  2.371444
H    -2.349431  5.534604  1.127387
Pb    1.863676  1.511377  2.425881
