33
Energy: -609923.735903 eV PBE+vdW (tier 2 basis)
C    1.272194  -1.160172  2.146258
C    -0.000776  -0.387548  2.245954
O    0.000974  0.720536  2.912056
H    2.012550  -0.532050  1.628255
H    1.161249  -2.103122  1.601111
H    1.674402  -1.357630  3.148432
N    -1.071431  -0.865580  1.631403
C    -2.401383  -0.332321  1.318312
C    -3.042186  0.585805  2.338717
O    -2.820852  0.502215  3.603723
H    -0.940139  -1.766554  1.143235
H    -2.313475  0.214014  0.364268
C    -3.349947  -1.570325  1.077402
C    -2.716558  -2.567330  0.140303
C    -2.715252  -2.346104  -1.246022
C    -2.083013  -3.714013  0.651461
C    -2.098617  -3.255465  -2.103140
C    -1.463810  -4.623318  -0.211117
C    -1.468333  -4.391783  -1.586704
H    -4.293794  -1.186622  0.668120
H    -3.571639  -2.031900  2.049625
H    -3.221388  -1.473457  -1.663985
H    -2.119522  -3.925481  1.722633
H    -2.120240  -3.085812  -3.178815
H    -0.998437  -5.522004  0.191773
H    -0.995159  -5.104450  -2.260822
N    -3.960601  1.416376  1.876330
C    -4.836394  2.261629  2.691018
H    -4.097949  1.450669  0.867565
H    -4.939102  1.830001  3.689935
H    -5.819916  2.307883  2.212334
H    -4.431663  3.280432  2.758148
Pb    -1.072791  1.279486  4.751234
