33
Energy: -609924.637803 eV PBE+vdW (tier 2 basis)
C    0.229324  0.598871  0.813155
C    -0.619158  0.910849  2.004741
O    -0.279934  0.472531  3.139052
H    1.236868  1.002760  0.985682
H    -0.162433  1.002959  -0.126052
H    0.338435  -0.490107  0.724676
N    -1.717489  1.666041  1.808773
C    -2.685170  2.196824  2.790506
C    -1.987126  2.883479  3.978157
O    -1.714791  2.260410  5.052198
H    -1.885014  1.947331  0.846479
H    -3.196489  2.995246  2.238018
C    -3.835845  1.236124  3.198596
C    -3.589208  -0.009121  4.029655
C    -4.026812  -0.064250  5.376221
C    -3.047762  -1.189726  3.465720
C    -3.947640  -1.253103  6.117499
C    -2.954538  -2.373183  4.216674
C    -3.413808  -2.410136  5.538893
H    -4.318630  0.927321  2.259314
H    -4.575888  1.858065  3.721675
H    -4.463938  0.824385  5.833066
H    -2.738435  -1.198060  2.420383
H    -4.319414  -1.272848  7.141595
H    -2.550935  -3.272564  3.752416
H    -3.367903  -3.337607  6.108291
N    -1.710370  4.177214  3.893050
C    -1.970738  5.104679  2.785792
H    -1.271478  4.565367  4.729170
H    -3.047409  5.262647  2.641480
H    -1.508255  4.752845  1.856190
H    -1.519832  6.067055  3.042990
Pb    -1.123397  0.037841  5.252239
