33
Energy: -609923.644493 eV PBE+vdW (tier 2 basis)
C    -0.704236  1.309349  0.045733
C    -0.431054  0.444916  1.227828
O    0.699744  -0.167903  1.298690
H    0.052701  2.107626  0.019999
H    -1.700875  1.761684  0.068223
H    -0.580333  0.728022  -0.877416
N    -1.347181  0.352701  2.183588
C    -1.218244  -0.205853  3.539706
C    -1.487259  -1.724399  3.532754
O    -0.720355  -2.448398  2.781834
H    -2.220003  0.880226  2.056148
H    -0.149524  -0.155762  3.811436
C    -1.967556  0.728728  4.511111
C    -3.309659  1.273643  4.051986
C    -3.699547  2.533710  4.530936
C    -4.184521  0.588587  3.187619
C    -4.930007  3.083446  4.177129
C    -5.414291  1.146642  2.822832
C    -5.790448  2.392536  3.320428
H    -1.296958  1.582023  4.685126
H    -2.043929  0.231940  5.489494
H    -3.035308  3.088268  5.195429
H    -3.938690  -0.399407  2.788098
H    -5.215786  4.059085  4.568026
H    -6.077906  0.599926  2.154109
H    -6.749285  2.826221  3.040448
N    -2.367199  -2.379830  4.263652
C    -3.380490  -1.979252  5.251228
H    -2.289496  -3.390556  4.125884
H    -3.866106  -1.041123  4.974890
H    -2.923814  -1.900476  6.246256
H    -4.135659  -2.770709  5.275802
Pb    1.261271  -2.253611  1.766993
