33
Energy: -609923.792994 eV PBE+vdW (tier 2 basis)
C    -2.945513  -1.854784  0.616891
C    -1.871477  -1.365186  1.523556
O    -0.649791  -1.421563  1.131352
H    -2.761986  -2.910014  0.371362
H    -2.895123  -1.295700  -0.328113
H    -3.945613  -1.749504  1.049222
N    -2.196373  -0.870505  2.717226
C    -1.254442  -0.204981  3.616388
C    -0.229594  -1.202614  4.179492
O    0.986452  -1.131682  3.747538
H    -3.188865  -0.665778  2.902578
H    -0.657761  0.497671  3.011758
C    -2.009513  0.654730  4.677228
C    -3.165015  1.386512  4.039748
C    -2.963659  2.576975  3.327507
C    -4.458565  0.838482  4.107236
C    -4.035145  3.208256  2.696803
C    -5.530293  1.471131  3.470792
C    -5.316828  2.653372  2.761459
H    -1.276367  1.348888  5.108436
H    -2.376082  0.028097  5.497145
H    -1.972413  3.033347  3.291976
H    -4.645493  -0.051815  4.714253
H    -3.874704  4.145693  2.165694
H    -6.533021  1.053186  3.551007
H    -6.152320  3.155677  2.275861
N    -0.510076  -2.115486  5.087779
C    -1.778898  -2.463226  5.736061
H    0.300423  -2.667449  5.377328
H    -1.786721  -3.546836  5.895117
H    -2.629031  -2.199083  5.103217
H    -1.862821  -1.965479  6.710458
Pb    1.514631  -1.085332  1.574648
