33
Energy: -609923.674805 eV PBE+vdW (tier 2 basis)
C    0.161878  0.547327  0.122756
C    -0.258081  0.078482  1.473399
O    0.514374  0.317093  2.483595
H    -0.580132  0.323706  -0.649994
H    1.110323  0.054107  -0.136959
H    0.362651  1.626471  0.144618
N    -1.385779  -0.589595  1.609246
C    -1.864168  -1.352948  2.756977
C    -2.655670  -2.520587  2.062169
O    -3.000214  -2.337721  0.892432
H    -1.940210  -0.887268  0.774583
H    -1.007698  -1.726789  3.336193
C    -2.848661  -0.560365  3.658948
C    -2.279825  0.570774  4.481322
C    -1.965023  0.385699  5.851461
C    -2.130127  1.874807  3.947767
C    -1.609487  1.470941  6.678035
C    -1.736914  2.954767  4.767041
C    -1.506065  2.759214  6.143002
H    -3.326078  -1.273923  4.343030
H    -3.647426  -0.165794  3.014110
H    -2.071726  -0.605582  6.295018
H    -2.374490  2.060638  2.900961
H    -1.430322  1.301157  7.739756
H    -1.663274  3.954491  4.337526
H    -1.254213  3.605641  6.781205
N    -2.941914  -3.627835  2.763436
C    -2.573242  -3.984088  4.127768
H    -3.498626  -4.302708  2.240315
H    -2.408871  -5.065668  4.179058
H    -3.363451  -3.724290  4.847266
H    -1.635013  -3.500428  4.422795
Pb    0.515476  1.166272  4.517165
