33
Energy: -609923.399378 eV PBE+vdW (tier 2 basis)
C    -0.649467  -0.877941  0.171368
C    -0.236344  -0.410986  1.518835
O    0.998276  -0.488754  1.870369
H    -0.246169  -0.214627  -0.608652
H    -1.732779  -0.974109  0.058444
H    -0.179003  -1.858911  0.005183
N    -1.121538  0.090179  2.399515
C    -2.133123  1.089499  2.053943
C    -1.385117  2.429697  1.829312
O    -0.109555  2.528927  2.019289
H    -0.773291  0.157759  3.358012
H    -2.597252  0.801754  1.100373
C    -3.231558  1.152128  3.148911
C    -4.331323  2.145235  2.851765
C    -4.521943  3.260425  3.682943
C    -5.171963  1.974231  1.737541
C    -5.530385  4.186053  3.407789
C    -6.174193  2.904933  1.459239
C    -6.352601  4.013467  2.292988
H    -2.763539  1.395409  4.115089
H    -3.636079  0.132342  3.232946
H    -3.891366  3.394937  4.563442
H    -5.072058  1.093537  1.098908
H    -5.680534  5.036590  4.071538
H    -6.829228  2.755272  0.601950
H    -7.142564  4.732413  2.080196
N    -2.095397  3.463370  1.444628
C    -1.611686  4.821186  1.198948
H    -3.111501  3.309676  1.397739
H    -2.158211  5.513680  1.850474
H    -1.805283  5.091020  0.153559
H    -0.542120  4.881683  1.407271
Pb    1.875896  1.531923  2.400146
