33
Energy: -609924.098046 eV PBE+vdW (tier 2 basis)
C    -0.624632  -0.095712  4.655498
C    -0.680220  0.220035  3.200965
O    0.261146  -0.207736  2.438149
H    -1.458684  0.335593  5.218358
H    0.326426  0.260536  5.073264
H    -0.634192  -1.188885  4.776697
N    -1.711862  0.911089  2.723241
C    -2.002482  1.193620  1.313116
C    -1.115322  2.364893  0.848841
O    0.050082  2.106121  0.359784
H    -2.417680  1.251686  3.386190
H    -1.669627  0.325471  0.723736
C    -3.535456  1.328087  1.092040
C    -4.250222  2.320306  1.982105
C    -4.608516  3.592645  1.501387
C    -4.586331  1.986733  3.306702
C    -5.238900  4.520311  2.335894
C    -5.210171  2.916936  4.141173
C    -5.523043  4.190189  3.661731
H    -3.951125  0.320955  1.240439
H    -3.692035  1.571512  0.032239
H    -4.459265  3.837658  0.446374
H    -4.443112  0.964569  3.670053
H    -5.532083  5.491989  1.940018
H    -5.481273  2.635717  5.158109
H    -6.021990  4.909686  4.309191
N    -1.537649  3.598649  0.972861
C    -0.796734  4.804786  0.601362
H    -2.489707  3.723897  1.351855
H    0.056740  4.540310  -0.026514
H    -0.449276  5.319094  1.506810
H    -1.469310  5.472668  0.051887
Pb    1.402503  0.345594  0.607451
