26
Energy: -15600.951795 eV PBE+vdW (tier 2 basis)
C    -4.192639  0.247130  2.938165
C    -2.910379  -0.543319  2.780205
O    -2.925685  -1.779151  2.647639
H    -4.290243  1.026347  2.169401
H    -5.033059  -0.447039  2.858652
H    -4.232000  0.746683  3.916471
N    -1.746517  0.161173  2.799725
C    -0.445232  -0.476974  2.500369
C    0.161447  -1.197140  3.741213
O    1.199542  -0.810349  4.279450
H    -0.606096  -1.230480  1.715640
C    0.420760  0.694593  2.037311
C    -0.122702  1.881119  2.844671
C    -1.632957  1.627838  2.886554
H    0.279986  0.856097  0.959081
H    1.479947  0.503207  2.236156
H    0.116779  2.854557  2.400674
H    0.297106  1.855528  3.858798
H    -2.140723  2.100180  2.028838
H    -2.099485  2.007688  3.805701
N    -0.556300  -2.278283  4.131881
C    -0.208595  -3.071046  5.293335
H    -1.436649  -2.444611  3.630470
H    -0.150148  -4.136780  5.033261
H    0.768875  -2.736228  5.656480
H    -0.947034  -2.948741  6.099861
