26
Energy: -15600.5750298 eV PBE+vdW (tier 2 basis)
C    0.524662  -0.482624  0.533770
C    -0.334993  -1.331797  1.453292
O    -0.229206  -2.557614  1.493807
H    1.302271  0.033803  1.113612
H    -0.052652  0.279236  -0.009129
H    1.007229  -1.149628  -0.185553
N    -1.241032  -0.668783  2.241102
C    -1.475554  0.772068  2.275518
C    -0.264307  1.562985  2.805428
O    0.508277  1.089886  3.632308
H    -1.756918  1.129532  1.272002
C    -2.670856  0.930735  3.254010
C    -3.330794  -0.454403  3.266744
C    -2.139077  -1.401703  3.135283
H    -3.346328  1.738157  2.946129
H    -2.287245  1.172931  4.254965
H    -4.001597  -0.571578  2.403188
H    -3.916287  -0.631126  4.177073
H    -2.376081  -2.375670  2.693687
H    -1.651752  -1.581055  4.108394
N    -0.121846  2.839983  2.336637
C    -0.939305  3.538164  1.357242
H    0.663634  3.334538  2.746935
H    -0.562034  4.561787  1.261441
H    -0.888813  3.070964  0.362115
H    -1.993396  3.603211  1.663003
