26
Energy: -15600.8353527 eV PBE+vdW (tier 2 basis)
C    0.367212  -0.143786  0.309178
C    -0.300244  -0.982071  1.384554
O    0.047655  -2.137138  1.628605
H    -0.311499  0.008499  -0.542777
H    1.248940  -0.686441  -0.041568
H    0.667585  0.848495  0.671060
N    -1.321690  -0.390455  2.092136
C    -1.942179  0.909593  1.808858
C    -1.249610  2.126693  2.461330
O    -1.630117  3.265312  2.198771
H    -1.955883  1.120601  0.731536
C    -3.374008  0.738451  2.355015
C    -3.182740  -0.217246  3.539685
C    -2.113848  -1.194576  3.041963
H    -4.001793  0.272119  1.582537
H    -3.821229  1.702307  2.620541
H    -4.107347  -0.729344  3.830063
H    -2.819738  0.335332  4.418317
H    -2.548405  -2.059734  2.516955
H    -1.475039  -1.594130  3.840055
N    -0.241538  1.832969  3.325338
C    0.520629  2.850837  4.019966
H    -0.002402  0.853191  3.435869
H    1.581942  2.817993  3.736242
H    0.442325  2.730843  5.109372
H    0.106023  3.824688  3.737398
