26
Energy: -15600.7407069 eV PBE+vdW (tier 2 basis)
C    -2.358033  1.728991  0.546315
C    -2.025682  0.427450  1.255829
O    -2.378419  -0.663611  0.810504
H    -2.784237  2.482264  1.222265
H    -3.075666  1.502585  -0.246733
H    -1.459594  2.165640  0.085993
N    -1.331909  0.520054  2.442813
C    -0.824944  -0.707750  3.085859
C    -1.843926  -1.528956  3.888266
O    -1.514403  -2.617337  4.353777
H    -0.448995  -1.385756  2.306227
C    0.308580  -0.208847  4.014658
C    0.702408  1.153803  3.435128
C    -0.634503  1.713806  2.944407
H    1.134010  -0.926062  4.057607
H    -0.075591  -0.091882  5.038289
H    1.385216  1.029787  2.581817
H    1.191287  1.807410  4.167934
H    -0.523804  2.466412  2.157026
H    -1.198446  2.172916  3.774892
N    -3.054037  -0.942468  4.089357
C    -4.139635  -1.617962  4.771186
H    -3.246312  -0.101928  3.556514
H    -4.910440  -1.959513  4.064507
H    -4.604983  -0.957322  5.514817
H    -3.718942  -2.492725  5.278746
