35
Energy: -608357.271051 eV PBE+vdW (tier 2 basis)
C    0.107847  -0.709011  -0.945053
C    0.060399  0.201962  0.229347
O    1.052748  0.976245  0.471077
H    0.839949  -0.323008  -1.663781
H    -0.866540  -0.823681  -1.428814
H    0.460462  -1.707709  -0.633577
N    -0.991887  0.236862  1.077785
C    -1.640344  -0.962348  1.644255
C    -0.501726  -1.790844  2.313481
O    0.607962  -1.226864  2.622687
H    -0.961668  1.032028  1.716391
H    -2.233434  -0.569838  2.486551
C    -2.622421  -1.705592  0.694480
C    -3.890992  -2.249783  1.391705
C    -4.815923  -3.060721  0.451623
C    -5.836843  -2.280074  -0.386402
N    -7.184343  -2.122388  0.314673
H    -2.105289  -2.519192  0.164153
H    -2.917347  -0.978566  -0.074819
H    -3.619412  -2.907616  2.231971
H    -4.435984  -1.412143  1.857550
H    -4.202099  -3.634922  -0.257526
H    -5.343413  -3.830606  1.035667
H    -6.064383  -2.805479  -1.321037
H    -5.508155  -1.264941  -0.641676
H    -7.847646  -1.592907  -0.272635
H    -7.113434  -1.627011  1.214622
H    -7.617921  -3.039443  0.502478
N    -0.696212  -3.059370  2.605475
C    0.268186  -3.919581  3.310508
H    -1.584317  -3.478225  2.342200
H    -0.226076  -4.864940  3.548194
H    0.594180  -3.434810  4.237242
H    1.138197  -4.118353  2.672734
Pb    2.162791  0.455502  2.378245
