35
Energy: -608357.323291 eV PBE+vdW (tier 2 basis)
C    0.835343  0.138791  1.302337
C    0.181323  -0.581484  2.426384
O    0.286219  -1.860342  2.476235
H    0.168860  0.158918  0.424000
H    1.720430  -0.438491  1.003456
H    1.127586  1.160836  1.551209
N    -0.489500  0.030151  3.431582
C    -1.576702  1.020139  3.285923
C    -2.778882  0.248884  2.660512
O    -2.589283  -0.898667  2.111509
H    -0.661307  -0.615362  4.205047
H    -1.861652  1.276400  4.317891
C    -1.225681  2.325112  2.533350
C    -0.112070  3.187895  3.174062
C    -0.569057  4.045602  4.369747
C    0.517304  4.881278  5.054074
N    0.917747  6.135850  4.281991
H    -2.146241  2.919993  2.460402
H    -0.961942  2.091215  1.495248
H    0.273283  3.833048  2.369257
H    0.730812  2.550545  3.483627
H    -0.963469  3.401741  5.171179
H    -1.409730  4.697272  4.079490
H    1.444270  4.315789  5.212723
H    0.169831  5.243617  6.028673
H    1.630799  6.669088  4.804165
H    0.116597  6.768909  4.139513
H    1.318777  5.927598  3.357106
N    -4.001024  0.742307  2.690241
C    -4.512811  1.971688  3.304526
H    -4.699272  0.161317  2.219577
H    -3.841759  2.328510  4.090837
H    -5.485973  1.746774  3.755250
H    -4.653394  2.749792  2.542832
Pb    -1.621388  -2.981661  2.030351
