35
Energy: -608358.164673 eV PBE+vdW (tier 2 basis)
C    -1.482698  -3.757377  1.346263
C    -0.838887  -2.474246  1.740626
O    0.086865  -1.981190  1.008382
H    -1.891486  -3.648037  0.330526
H    -2.280371  -4.075305  2.025826
H    -0.719858  -4.547147  1.287818
N    -1.261590  -1.846190  2.846865
C    -0.831633  -0.525108  3.346601
C    0.554091  -0.668621  4.028056
O    1.608276  -0.724117  3.299889
H    -1.976369  -2.328384  3.389786
H    -0.654079  0.114028  2.467956
C    -1.932075  0.090265  4.237392
C    -3.244950  0.519250  3.533793
C    -3.202282  1.924578  2.904368
C    -4.499243  2.401239  2.242798
N    -5.569352  2.855073  3.232596
H    -1.501938  0.962734  4.751346
H    -2.192457  -0.634587  5.026670
H    -4.030904  0.473226  4.302761
H    -3.535379  -0.221083  2.771721
H    -2.447214  1.962307  2.104328
H    -2.871669  2.669025  3.647400
H    -4.968791  1.623917  1.626768
H    -4.310917  3.272915  1.605237
H    -6.407619  3.189633  2.731682
H    -5.240320  3.636643  3.819144
H    -5.879792  2.102160  3.862405
N    0.647331  -0.739147  5.338099
C    1.889671  -0.902715  6.106729
H    -0.213758  -0.680460  5.878520
H    1.996913  -1.950336  6.417739
H    1.833048  -0.269528  6.998454
H    2.743366  -0.607352  5.493133
Pb    2.174070  -1.187062  1.173321
