35
Energy: -608356.397539 eV PBE+vdW (tier 2 basis)
C    0.125301  0.423233  0.493920
C    -0.065895  0.225080  1.951830
O    0.969161  0.338490  2.757940
H    0.880969  -0.290415  0.131986
H    0.516225  1.435063  0.309684
H    -0.790039  0.283817  -0.088461
N    -1.220963  -0.078856  2.511514
C    -2.572773  -0.178515  1.889799
C    -2.626691  -1.260073  0.759126
O    -2.934679  -0.945918  -0.396003
H    -1.189885  -0.205577  3.525102
H    -3.196541  -0.570006  2.706200
C    -3.086632  1.238195  1.520623
C    -4.323162  1.366731  0.611568
C    -5.571082  0.535798  0.959523
C    -6.533527  0.441637  -0.222154
N    -6.005360  -0.528197  -1.280637
H    -2.277946  1.797434  1.030542
H    -3.274324  1.750236  2.476133
H    -4.000152  1.161297  -0.416498
H    -4.602489  2.430697  0.625981
H    -6.122179  0.994435  1.792358
H    -5.325253  -0.484590  1.297345
H    -6.658491  1.410191  -0.721584
H    -7.524374  0.073847  0.066175
H    -6.247391  -1.499386  -1.043920
H    -6.407017  -0.335159  -2.208857
H    -4.973282  -0.485254  -1.353159
N    -2.372220  -2.533690  1.120187
C    -2.095298  -3.093997  2.442056
H    -2.418143  -3.191302  0.342558
H    -2.308468  -4.167092  2.411173
H    -2.745378  -2.658355  3.211677
H    -1.042378  -2.971447  2.731558
Pb    2.936121  0.785484  3.484560
