35
Energy: -608357.912460 eV PBE+vdW (tier 2 basis)
C    -0.679603  -1.289542  -0.516819
C    -0.382192  -0.842599  0.870037
O    0.819397  -0.535174  1.188998
H    -0.381595  -0.488777  -1.211392
H    -1.734510  -1.532633  -0.681859
H    -0.058242  -2.161937  -0.764224
N    -1.382454  -0.743687  1.755020
C    -1.318830  -0.166075  3.115945
C    -0.635181  -1.193910  4.047509
O    0.640768  -1.181587  4.161793
H    -2.306138  -1.010917  1.416355
H    -0.631775  0.692942  3.072863
C    -2.731422  0.342317  3.487912
C    -2.884579  1.397945  4.607896
C    -2.833314  0.907361  6.070557
C    -3.704031  1.691959  7.057653
N    -3.261289  3.131937  7.301957
H    -3.416845  -0.502172  3.675699
H    -3.112647  0.815775  2.570763
H    -3.873774  1.846565  4.426256
H    -2.156692  2.207412  4.439681
H    -1.800431  0.840321  6.446704
H    -3.238858  -0.114406  6.135991
H    -3.701229  1.214489  8.044788
H    -4.744374  1.756856  6.713765
H    -3.886965  3.587723  7.985234
H    -3.287539  3.705727  6.447232
H    -2.307929  3.184804  7.689113
N    -1.358527  -2.089756  4.687020
C    -0.834646  -3.178761  5.523564
H    -2.366882  -2.062868  4.548638
H    -1.528170  -3.349493  6.353095
H    0.149236  -2.903879  5.911079
H    -0.756985  -4.100528  4.931584
Pb    2.373701  -0.725915  2.764893
