35
Energy: -608356.386759 eV PBE+vdW (tier 2 basis)
C    -0.367633  -0.463673  -0.213623
C    -0.183433  -0.635516  1.271118
O    0.686670  -1.349832  1.762721
H    0.611347  -0.513945  -0.701345
H    -0.869257  0.472806  -0.485265
H    -0.969574  -1.300856  -0.597078
N    -1.087142  0.061262  2.065567
C    -1.294396  -0.047290  3.504336
C    -0.734080  1.186131  4.255637
O    -1.582068  1.866234  4.997800
H    -1.798586  0.580979  1.559854
H    -2.380334  0.034722  3.661273
C    -0.833225  -1.360341  4.199071
C    -1.528717  -2.620193  3.647121
C    -0.798204  -3.905872  4.083592
C    -1.482515  -5.152635  3.524824
N    -0.739769  -6.425770  3.910072
H    -1.062568  -1.252299  5.270852
H    0.252365  -1.468438  4.109523
H    -1.548219  -2.584910  2.549548
H    -2.576716  -2.646381  3.982634
H    -0.760290  -3.963189  5.183389
H    0.241261  -3.860172  3.720999
H    -1.518163  -5.147402  2.428219
H    -2.505070  -5.274146  3.903340
H    -1.208261  -7.261566  3.528481
H    -0.688070  -6.545986  4.932299
H    0.226610  -6.427855  3.551515
N    0.505052  1.605393  4.209364
C    1.673849  1.066747  3.503234
H    0.693478  2.454546  4.747123
H    1.466886  0.084905  3.070110
H    1.959485  1.771183  2.710362
H    2.498905  0.996556  4.222679
Pb    -2.865829  3.174814  6.109845
