35
Energy: -608356.224424 eV PBE+vdW (tier 2 basis)
C    -0.317082  -0.434330  0.701848
C    0.372727  0.290545  1.816708
O    1.295527  -0.188948  2.463913
H    -1.105993  0.140188  0.205450
H    -0.718848  -1.393177  1.054915
H    0.449618  -0.685201  -0.046989
N    -0.023671  1.622869  2.099858
C    -1.419453  1.935380  2.394888
C    -1.878084  3.131543  1.543688
O    -3.087091  3.603608  1.670736
H    0.619462  2.013546  2.792958
H    -2.047156  1.089376  2.071980
C    -1.653170  2.195273  3.918906
C    -0.854072  1.282698  4.872214
C    -1.202175  -0.217521  4.888361
C    -0.233337  -1.044152  5.745047
N    1.009105  -1.495326  4.980569
H    -2.728833  2.107022  4.125480
H    -1.369948  3.233837  4.148504
H    -1.019291  1.682584  5.883599
H    0.224582  1.422242  4.696975
H    -1.262492  -0.653874  3.878353
H    -2.203357  -0.354544  5.320966
H    0.122081  -0.471401  6.610190
H    -0.704747  -1.957784  6.122646
H    1.802167  -1.656827  5.616747
H    1.306695  -0.821733  4.241941
H    0.838063  -2.384817  4.492816
N    -1.028714  3.648969  0.698260
C    -1.245728  4.781699  -0.198918
H    -0.124995  3.152687  0.692521
H    -0.304458  5.009708  -0.707748
H    -1.551259  5.669819  0.371517
H    -1.997652  4.531031  -0.960858
Pb    -4.907291  4.721291  1.445901
