35
Energy: -608356.617183 eV PBE+vdW (tier 2 basis)
C    -1.282892  1.138892  0.072110
C    -1.388300  -0.183192  0.753574
O    -1.363982  -1.288184  0.053185
H    -1.340339  1.986284  0.764207
H    -2.092824  1.245403  -0.665619
H    -0.320503  1.205045  -0.458995
N    -1.499548  -0.239217  2.069127
C    -1.555183  -1.398691  2.976080
C    -2.995323  -1.864938  3.360289
O    -3.110435  -3.045853  3.718314
H    -1.457243  0.671333  2.533094
H    -1.116997  -2.253030  2.447931
C    -0.730771  -1.030917  4.244458
C    -0.899864  -1.941745  5.468104
C    -0.310007  -3.361801  5.349025
C    -0.925134  -4.340836  6.345950
N    -2.279945  -4.847343  5.850655
H    -1.027047  -0.014144  4.552911
H    0.328598  -0.974114  3.953066
H    -1.965264  -1.978069  5.741429
H    -0.410277  -1.432742  6.310332
H    0.770504  -3.330443  5.544843
H    -0.416339  -3.772067  4.332647
H    -1.098906  -3.872213  7.322188
H    -0.300146  -5.226391  6.503362
H    -2.901415  -5.102317  6.629447
H    -2.754038  -4.140635  5.248045
H    -2.163866  -5.689406  5.272622
N    -3.999200  -0.982890  3.330594
C    -5.367954  -1.298969  3.759250
H    -3.806163  -0.017423  3.084727
H    -6.067596  -0.664954  3.206287
H    -5.491608  -1.113696  4.834070
H    -5.578966  -2.350627  3.545610
Pb    -1.182253  -2.129093  -1.936346
