35
Energy: -608355.775852 eV PBE+vdW (tier 2 basis)
C    0.190947  -1.313204  0.207341
C    -0.179973  -0.874216  1.599402
O    0.647039  -0.531002  2.421497
H    0.762221  -0.516239  -0.285383
H    -0.651049  -1.603808  -0.430088
H    0.879201  -2.165469  0.300361
N    -1.536006  -0.927887  2.021430
C    -2.722969  -0.613252  1.230838
C    -3.283892  -1.899825  0.589264
O    -4.276390  -1.847681  -0.242636
H    -1.598512  -0.665386  3.005887
H    -3.508126  -0.361379  1.968101
C    -2.632249  0.596160  0.262341
C    -2.497268  1.980399  0.947983
C    -1.083914  2.387857  1.409500
C    -0.974520  3.744906  2.107790
N    -1.050817  4.945119  1.166124
H    -3.561759  0.606360  -0.322623
H    -1.818723  0.443802  -0.460362
H    -3.193810  2.036175  1.800371
H    -2.871790  2.711003  0.213578
H    -0.372028  2.343707  0.568529
H    -0.692870  1.677242  2.150283
H    -1.765053  3.898052  2.853527
H    -0.006594  3.839072  2.613989
H    -0.300792  4.921625  0.459644
H    -0.940530  5.825970  1.692060
H    -1.948893  5.004459  0.667207
N    -2.774437  -3.047756  0.968949
C    -3.233753  -4.363901  0.556055
H    -2.011311  -2.951729  1.653167
H    -2.613635  -5.131106  1.032174
H    -3.133324  -4.489944  -0.534404
H    -4.272508  -4.538762  0.888862
Pb    -5.829369  -2.930685  -1.332161
