35
Energy: -608355.945670 eV PBE+vdW (tier 2 basis)
C    -0.275471  2.764918  1.216269
C    -1.398818  1.798600  1.080183
O    -2.356950  2.060413  0.274809
H    0.493410  2.446306  1.927728
H    -0.667845  3.746633  1.516597
H    0.183896  2.904657  0.225527
N    -1.371088  0.658051  1.784910
C    -2.296539  -0.479392  1.650599
C    -3.582882  -0.204824  2.464806
O    -4.409251  0.671852  2.029396
H    -0.582224  0.544251  2.416849
H    -2.646728  -0.465384  0.606447
C    -1.576910  -1.843079  1.819656
C    -0.651783  -2.103977  3.029446
C    -0.016255  -3.511303  2.929237
C    0.967071  -3.791158  4.068131
N    1.592701  -5.174241  3.947259
H    -0.979796  -1.972800  0.904981
H    -2.354312  -2.620771  1.765102
H    -1.180592  -2.015852  3.992735
H    0.160002  -1.359237  3.065547
H    0.504358  -3.598928  1.962187
H    -0.813699  -4.271407  2.930762
H    0.484807  -3.764669  5.053361
H    1.805397  -3.083207  4.075989
H    2.122054  -5.284380  3.069075
H    0.885919  -5.924593  3.975109
H    2.252098  -5.351636  4.721077
N    -3.837838  -0.867247  3.573245
C    -5.024816  -0.710259  4.424020
H    -3.156279  -1.562391  3.866072
H    -5.515498  -1.684391  4.536337
H    -5.713042  0.000611  3.963683
H    -4.718752  -0.343982  5.411867
Pb    -4.591457  2.107508  0.289558
