35
Energy: -608356.896744 eV PBE+vdW (tier 2 basis)
C    -0.404218  0.736565  0.037105
C    -0.083564  0.294511  1.418420
O    1.105439  0.622161  1.912186
H    0.335827  0.322192  -0.662650
H    -1.403754  0.426813  -0.279338
H    -0.333606  1.831929  -0.025815
N    -0.874914  -0.388815  2.189328
C    -2.256545  -0.881420  2.022295
C    -2.665725  -1.014166  3.531249
O    -1.732905  -1.196165  4.329948
H    -0.616759  -0.660477  3.185010
H    -2.857236  -0.143452  1.477449
C    -2.210496  -2.269055  1.316883
C    -3.493818  -3.123308  1.249612
C    -4.470547  -2.825358  0.093063
C    -5.554847  -3.904517  0.045223
N    -6.481331  -3.760705  -1.155681
H    -1.458628  -2.858669  1.860600
H    -1.808311  -2.118566  0.303036
H    -4.022458  -3.100730  2.213280
H    -3.149161  -4.162000  1.138255
H    -3.914445  -2.821204  -0.858654
H    -4.934052  -1.832088  0.202659
H    -6.203092  -3.884120  0.930206
H    -5.120196  -4.908989  -0.034565
H    -7.196087  -4.504789  -1.161661
H    -5.966883  -3.828977  -2.046165
H    -6.981382  -2.859986  -1.156796
N    -3.947089  -0.950085  3.907926
C    -5.135185  -0.602989  3.138305
H    -4.074637  -1.075831  4.913231
H    -5.824490  -1.456054  3.079018
H    -4.866400  -0.285501  2.126688
H    -5.659135  0.228781  3.624748
Pb    2.976472  1.282046  2.619832
