35
Energy: -608356.472252 eV PBE+vdW (tier 2 basis)
C    -0.677128  -1.025996  0.637825
C    -1.608489  -0.626408  1.760487
O    -1.693325  -1.633054  2.755565
H    0.351639  -1.063376  1.019083
H    -0.711320  -0.284947  -0.167429
H    -0.951596  -2.006336  0.230538
N    -1.392721  0.690919  2.282690
C    -2.654541  1.365337  2.583929
C    -3.569796  0.575661  1.677309
O    -2.997923  -0.502117  1.201035
H    -0.671151  0.750906  2.997346
H    -3.012509  1.187092  3.618643
C    -2.593113  2.900893  2.377290
C    -2.170833  3.362257  0.973107
C    -1.633939  4.807962  0.882213
C    -2.684519  5.897654  1.093698
N    -2.092092  7.281497  0.854194
H    -1.876194  3.267422  3.128583
H    -3.563535  3.325459  2.681204
H    -2.997393  3.233015  0.256379
H    -1.358860  2.708899  0.624622
H    -1.191431  4.929935  -0.118863
H    -0.812856  4.937493  1.605815
H    -3.085824  5.918748  2.114412
H    -3.522298  5.806133  0.390653
H    -2.794756  8.023621  0.992210
H    -1.730651  7.378711  -0.106727
H    -1.309018  7.479747  1.494769
N    -4.803996  0.859695  1.374454
C    -5.707293  0.061949  0.529062
H    -5.191381  1.706326  1.789380
H    -6.121338  0.707394  -0.253770
H    -6.526779  -0.327582  1.145302
H    -5.154583  -0.762249  0.073811
Pb    -1.303034  -3.529043  3.505641
