35
Energy: -608356.134761 eV PBE+vdW (tier 2 basis)
C    0.253321  0.643036  0.376187
C    -0.067876  0.254853  1.771983
O    0.931442  0.121162  2.620083
H    0.812940  1.589563  0.385013
H    -0.625869  0.763638  -0.255536
H    0.909375  -0.120724  -0.066948
N    -1.271900  0.026303  2.263413
C    -2.671962  -0.005006  1.759326
C    -3.266068  -1.468644  1.812972
O    -4.328057  -1.581162  2.412260
H    -1.246322  -0.218353  3.257316
H    -3.225485  0.480094  2.573570
C    -3.034850  0.732814  0.458358
C    -4.569784  0.805453  0.276155
C    -4.968750  1.649372  -0.947614
C    -6.420622  1.516435  -1.404388
N    -7.431334  2.156287  -0.455288
H    -2.604856  0.239344  -0.424233
H    -2.623459  1.753166  0.505290
H    -5.016915  1.210984  1.198072
H    -4.970599  -0.212878  0.164951
H    -4.377532  1.334043  -1.821623
H    -4.717458  2.711650  -0.795729
H    -6.730265  0.468842  -1.508723
H    -6.571104  2.015938  -2.368722
H    -8.387875  2.071375  -0.831999
H    -7.246766  3.161640  -0.324490
H    -7.434081  1.713835  0.474143
N    -2.644948  -2.497404  1.196807
C    -1.460309  -2.518336  0.348230
H    -3.143969  -3.379050  1.312295
H    -1.476800  -3.443234  -0.236817
H    -0.529280  -2.516580  0.934249
H    -1.453068  -1.688366  -0.367952
Pb    2.843916  0.206020  3.587704
