35
Energy: -608356.860664 eV PBE+vdW (tier 2 basis)
C    0.861763  0.450218  0.182954
C    0.141432  1.178234  1.265338
O    -0.046423  2.480249  1.168305
H    1.879459  0.855580  0.075512
H    0.333907  0.583852  -0.773195
H    0.945211  -0.623433  0.381381
N    -0.302031  0.533892  2.315239
C    -0.994274  1.020666  3.520173
C    -0.558523  0.014709  4.615329
O    -0.441432  -1.183424  4.278308
H    -0.114107  -0.478816  2.384806
H    -0.648220  2.040388  3.731499
C    -2.542134  1.020518  3.341542
C    -3.223938  -0.358429  3.239524
C    -3.690265  -0.959943  4.586754
C    -3.808514  -2.483641  4.580312
N    -2.466836  -3.151163  4.882626
H    -2.757432  1.610883  2.439813
H    -2.962362  1.595203  4.180277
H    -2.566391  -1.063515  2.708211
H    -4.106362  -0.252407  2.594801
H    -4.682028  -0.557321  4.833395
H    -3.045910  -0.648899  5.424398
H    -4.140507  -2.863838  3.606819
H    -4.510911  -2.847052  5.338121
H    -2.401293  -4.086961  4.460678
H    -2.347191  -3.276930  5.896062
H    -1.661179  -2.567903  4.556777
N    -0.374582  0.492545  5.844046
C    0.010668  -0.322616  6.999878
H    -0.492161  1.490381  5.999629
H    0.757595  0.220535  7.588291
H    0.445968  -1.261554  6.646746
H    -0.859075  -0.523882  7.639382
Pb    0.312516  4.288336  0.061183
