35
Energy: -608356.003804 eV PBE+vdW (tier 2 basis)
C    -1.486219  1.394280  0.458745
C    -1.374123  1.041430  1.911887
O    -1.559465  1.852711  2.807933
H    -1.666384  0.541426  -0.204960
H    -0.527017  1.851309  0.162058
H    -2.254993  2.158691  0.304982
N    -0.926612  -0.268284  2.259526
C    -1.740542  -1.451696  1.933357
C    -1.150977  -2.196302  0.725053
O    -1.748470  -3.253373  0.247773
H    -0.637111  -0.265367  3.239430
H    -1.578114  -2.168720  2.759493
C    -3.261511  -1.149253  1.890010
C    -3.771806  -0.753495  3.298145
C    -5.056607  0.095203  3.335932
C    -4.953275  1.578493  2.976714
N    -4.119539  2.388365  3.960260
H    -3.812514  -2.030507  1.535292
H    -3.448697  -0.357106  1.150871
H    -2.976265  -0.236995  3.855612
H    -3.963344  -1.673750  3.867508
H    -5.502262  0.006918  4.339057
H    -5.813828  -0.328322  2.658728
H    -4.505666  1.760849  1.991735
H    -5.952661  2.029035  2.976205
H    -4.278536  3.397419  3.827246
H    -3.101508  2.223686  3.814994
H    -4.362304  2.173216  4.937525
N    -0.006504  -1.784875  0.248242
C    0.778284  -2.387318  -0.825716
H    0.361932  -0.970351  0.762477
H    0.150730  -2.560178  -1.710324
H    1.241119  -3.325551  -0.485119
H    1.579610  -1.696325  -1.104938
Pb    -2.076925  -5.153989  -0.703374
