35
Energy: -608356.396677 eV PBE+vdW (tier 2 basis)
C    -0.379210  1.888172  0.122083
C    -0.206418  1.437174  1.525460
O    0.951124  1.600294  2.063629
H    -1.348654  1.618300  -0.308032
H    0.428385  1.462041  -0.489957
H    -0.251199  2.980306  0.080822
N    -1.240706  0.898704  2.180142
C    -1.354973  0.214206  3.495466
C    -0.695989  0.959429  4.663456
O    -1.431290  1.007317  5.768680
H    -2.104271  0.874693  1.641243
H    -2.427864  0.260563  3.722696
C    -1.009202  -1.303659  3.405931
C    0.428648  -1.687796  3.017250
C    0.594062  -3.123586  2.464391
C    0.390411  -4.244744  3.482557
N    0.695319  -5.602899  2.860793
H    -1.714890  -1.715584  2.667451
H    -1.296189  -1.747301  4.371797
H    1.116084  -1.531943  3.862326
H    0.788834  -1.030239  2.215139
H    1.613785  -3.196788  2.055080
H    -0.094854  -3.265071  1.615807
H    -0.640184  -4.311571  3.852158
H    1.065508  -4.150912  4.342603
H    0.565654  -6.368566  3.539406
H    1.668247  -5.657168  2.522806
H    0.083095  -5.803004  2.055594
N    0.476615  1.487176  4.555008
C    1.050970  2.225508  5.644616
H    0.913448  1.501185  3.121157
H    2.035987  2.631465  5.379239
H    1.220971  1.587004  6.543799
H    0.434519  3.124785  5.903534
Pb    -1.260852  2.049811  7.649914
