35
Energy: -608356.931816 eV PBE+vdW (tier 2 basis)
C    -0.260976  -1.064326  1.511412
C    -0.088918  0.379821  1.208115
O    1.142178  0.862957  1.127899
H    -1.309971  -1.358696  1.599844
H    0.252823  -1.305688  2.452952
H    0.208146  -1.665102  0.718162
N    -1.068223  1.217860  1.007992
C    -2.529107  1.007721  0.966056
C    -2.968404  2.161705  0.015941
O    -2.330135  3.217476  0.111852
H    -0.887376  2.224315  0.794265
H    -2.746316  0.012140  0.563105
C    -3.115130  1.185065  2.394873
C    -4.656435  1.159920  2.534493
C    -5.317291  2.550384  2.641108
C    -6.806835  2.414097  2.957563
N    -7.469382  3.763404  3.205198
H    -2.716618  2.125430  2.803273
H    -2.693129  0.377929  3.009670
H    -4.887310  0.597270  3.450081
H    -5.117725  0.585640  1.718169
H    -5.177715  3.122823  1.710865
H    -4.822300  3.117223  3.446201
H    -6.978396  1.827060  3.868803
H    -7.369120  1.946962  2.139411
H    -8.472708  3.652175  3.417134
H    -7.397628  4.385998  2.387462
H    -7.043402  4.256226  4.003978
N    -4.008175  1.988600  -0.816982
C    -4.677617  0.750172  -1.223022
H    -4.172501  2.802468  -1.410741
H    -5.706282  0.984701  -1.516294
H    -4.720646  0.029703  -0.400903
H    -4.172775  0.287014  -2.081705
Pb    3.226930  1.186967  0.985127
