35
Energy: -608356.616264 eV PBE+vdW (tier 2 basis)
C    -2.840629  0.700683  0.510209
C    -2.238201  0.612337  1.864146
O    -1.252990  1.394761  2.130972
H    -3.310560  1.689344  0.395388
H    -3.581687  -0.079212  0.309238
H    -2.039702  0.654729  -0.240930
N    -2.736997  -0.249634  2.756720
C    -2.262164  -0.680851  4.097248
C    -1.918662  0.467489  5.055295
O    -2.367710  0.302642  6.293871
H    -3.548455  -0.768960  2.427927
H    -3.143788  -1.151872  4.550621
C    -1.174058  -1.796208  4.027937
C    0.147499  -1.460613  3.319590
C    1.212914  -2.583180  3.365943
C    0.920191  -3.771718  2.448332
N    2.091938  -4.745581  2.417503
H    -1.665797  -2.656495  3.548843
H    -0.980134  -2.105174  5.067504
H    0.607058  -0.576394  3.783373
H    -0.034432  -1.189156  2.268768
H    1.342380  -2.933174  4.402721
H    2.171127  -2.131974  3.064734
H    0.766284  -3.458676  1.407668
H    0.052104  -4.362055  2.765889
H    1.899688  -5.547110  1.797065
H    2.300811  -5.127682  3.352060
H    2.953613  -4.294946  2.073533
N    -1.238536  1.492800  4.665078
C    -0.960453  2.575209  5.567756
H    -1.085152  1.476107  3.180894
H    -0.402840  3.379118  5.069624
H    -0.323186  2.254124  6.425584
H    -1.901682  3.062868  5.929071
Pb    -2.430616  1.538972  8.060173
