35
Energy: -608356.089405 eV PBE+vdW (tier 2 basis)
C    -1.448336  1.874110  -1.092876
C    -2.252295  1.099092  -0.105853
O    -3.299199  1.632509  0.408328
H    -1.193433  2.861307  -0.685267
H    -2.084121  2.059383  -1.973769
H    -0.535805  1.364092  -1.418792
N    -1.864249  -0.146078  0.197310
C    -2.576939  -1.252896  0.866451
C    -3.293259  -0.864060  2.161033
O    -2.970806  0.184685  2.832995
H    -1.038249  -0.452240  -0.312958
H    -3.353467  -1.603779  0.165858
C    -1.592562  -2.444161  1.078885
C    -0.453399  -2.215961  2.088986
C    0.362792  -3.479431  2.454555
C    1.306013  -3.981009  1.358933
N    2.184909  -5.116541  1.869155
H    -1.206524  -2.706309  0.080733
H    -2.194431  -3.309787  1.387926
H    -0.873117  -1.839910  3.033514
H    0.232114  -1.428796  1.738180
H    -0.322967  -4.287610  2.755675
H    0.958325  -3.228360  3.345985
H    1.997409  -3.198397  1.021141
H    0.780508  -4.382932  0.483886
H    2.829194  -5.452423  1.136511
H    1.628732  -5.927757  2.178993
H    2.764221  -4.821239  2.670063
N    -4.249278  -1.653677  2.623926
C    -4.836641  -2.878817  2.065566
H    -4.615796  -1.369291  3.534939
H    -4.369162  -3.767035  2.509847
H    -4.735264  -2.908898  0.976661
H    -5.903277  -2.888499  2.314739
Pb    -3.716824  2.300854  2.490303
