35
Energy: -608355.827369 eV PBE+vdW (tier 2 basis)
C    1.282601  -1.139988  2.039132
C    0.760695  -1.073517  3.442528
O    1.389477  -1.501129  4.409769
H    0.740208  -0.505227  1.330898
H    1.284927  -2.180340  1.681759
H    2.334976  -0.826186  2.061204
N    -0.482920  -0.472336  3.681508
C    -1.665897  -0.789834  2.898110
C    -2.345635  0.444334  2.279747
O    -2.844057  0.319323  1.069680
H    -0.645209  -0.426181  4.687280
H    -1.347301  -1.385278  2.032794
C    -2.717984  -1.619458  3.722190
C    -2.108760  -2.622398  4.726979
C    -1.231092  -3.737653  4.135004
C    -0.450495  -4.575957  5.150100
N    0.601744  -3.780328  5.921743
H    -3.372306  -2.143254  3.011038
H    -3.364835  -0.933235  4.288241
H    -2.956222  -3.074706  5.263201
H    -1.559610  -2.060360  5.499481
H    -0.520721  -3.350676  3.389452
H    -1.865443  -4.450734  3.587552
H    0.090384  -5.376134  4.632982
H    -1.103641  -5.041885  5.897820
H    1.380128  -4.390657  6.206809
H    0.219636  -3.378152  6.786632
H    0.998744  -2.985049  5.363245
N    -2.470056  1.600893  2.882788
C    -2.065480  2.005910  4.240938
H    -2.916668  2.336997  2.332810
H    -2.353257  1.247270  4.975190
H    -2.595853  2.933435  4.476583
H    -0.984886  2.189564  4.276429
Pb    -3.768439  0.329602  -0.869839
