35
Energy: -608357.898913 eV PBE+vdW (tier 2 basis)
C    -1.032471  0.027645  -0.330684
C    -0.909276  -0.243100  1.128820
O    0.146140  -0.817577  1.566984
H    -0.179713  0.637074  -0.662321
H    -1.966037  0.526828  -0.610585
H    -0.958929  -0.928663  -0.870631
N    -1.919997  0.111767  1.933805
C    -2.140315  -0.137915  3.379557
C    -1.074539  0.578284  4.233326
O    0.094677  0.076370  4.406106
H    -2.697355  0.565430  1.458090
H    -3.095248  0.362065  3.582942
C    -2.321169  -1.633871  3.730638
C    -2.963110  -1.860166  5.114944
C    -3.113736  -3.352234  5.496790
C    -4.348610  -4.099995  4.977376
N    -5.530865  -4.038858  5.942050
H    -1.355751  -2.157747  3.681048
H    -2.945826  -2.067542  2.935807
H    -3.938180  -1.346224  5.156886
H    -2.343222  -1.383925  5.889093
H    -3.065005  -3.453131  6.592099
H    -2.237445  -3.910008  5.136130
H    -4.140358  -5.169050  4.854665
H    -4.720354  -3.717276  4.018741
H    -5.294949  -4.466707  6.850583
H    -6.340743  -4.558038  5.568281
H    -5.847135  -3.077187  6.129334
N    -1.368089  1.715705  4.832894
C    -2.618878  2.491696  4.811511
H    -0.605021  2.106313  5.391179
H    -2.426832  3.443506  5.315114
H    -3.415366  1.970472  5.356700
H    -2.932435  2.709330  3.784240
Pb    1.699666  -0.874454  3.150693
