35
Energy: -608356.524201 eV PBE+vdW (tier 2 basis)
C    1.426547  -0.207863  1.114038
C    0.593303  0.808432  1.840289
O    1.069010  1.641209  2.607573
H    0.923805  -0.673233  0.258433
H    1.701598  -1.001139  1.826587
H    2.359488  0.260758  0.780948
N    -0.780509  0.737576  1.575553
C    -1.903850  1.303354  2.330224
C    -2.899122  1.955790  1.354434
O    -4.146051  2.100685  1.718185
H    -1.027022  -0.108636  1.063843
H    -2.459527  0.467860  2.789147
C    -1.559790  2.284329  3.487992
C    -0.999664  3.662745  3.104767
C    -0.388977  4.445563  4.287532
C    0.812116  3.853171  5.026382
N    2.053051  3.713839  4.163681
H    -0.868137  1.733935  4.136993
H    -2.481223  2.409125  4.076966
H    -1.804568  4.294133  2.696935
H    -0.257684  3.561938  2.301882
H    -1.155221  4.601074  5.062792
H    -0.132426  5.457561  3.937955
H    0.621121  2.852278  5.431586
H    1.083667  4.504377  5.865536
H    2.865868  3.446606  4.736267
H    2.293961  4.596719  3.693528
H    1.908158  2.968406  3.447606
N    -2.476450  2.373670  0.192397
C    -3.224594  3.053570  -0.865954
H    -1.486534  2.160571  0.021729
H    -2.558173  3.772759  -1.354412
H    -4.081079  3.588147  -0.445940
H    -3.559779  2.323854  -1.616233
Pb    -6.238493  1.941997  2.148618
