30
Energy: -573016.942962 eV PBE+vdW (tier 2 basis)
C    -0.227209  -1.225289  1.119764
C    -0.578540  0.154359  1.587977
O    0.320399  0.966809  1.896757
H    0.415389  -1.705580  1.868209
H    0.368783  -1.140143  0.200495
H    -1.097776  -1.860271  0.923396
N    -1.900264  0.477970  1.626509
C    -2.470960  1.772494  1.992160
C    -1.789179  2.938566  1.216093
O    -0.932120  3.762219  1.699818
H    -2.557640  -0.249972  1.363607
H    -3.482728  1.752650  1.566362
C    -2.737798  2.006507  3.536023
C    -1.901990  1.361556  4.606336
N    -0.605201  1.761230  4.935689
C    -2.266588  0.422553  5.540799
C    -0.194105  1.081326  6.005784
N    -1.194744  0.270735  6.391661
H    -3.761431  1.650368  3.708354
H    -2.791925  3.093277  3.716200
H    -3.196139  -0.114859  5.685978
H    0.770560  1.161144  6.493283
H    -1.164919  -0.342208  7.204321
N    -2.170392  3.146302  -0.034090
C    -3.212241  2.467650  -0.812201
H    -1.680022  3.916666  -0.492406
H    -4.201683  2.600534  -0.355240
H    -2.985153  1.401657  -0.929797
H    -3.236173  2.924457  -1.805243
Hg    0.179792  2.879289  3.323402
