30
Energy: -573015.941116 eV PBE+vdW (tier 2 basis)
C    -0.077216  -1.150051  0.156824
C    -0.242706  -0.802876  1.620419
O    0.865635  -0.198438  2.041936
H    -0.089730  -0.232816  -0.447556
H    -0.892762  -1.814936  -0.148265
H    0.886380  -1.642279  -0.016052
N    -1.360199  -1.106286  2.216026
C    -1.701377  -0.650935  3.553096
C    -1.041623  -1.467934  4.697282
O    -0.196950  -0.892008  5.480133
H    -3.149561  -0.604091  0.972573
H    -1.356345  0.388432  3.746316
C    -3.246814  -0.598837  3.727780
C    -3.930666  0.272838  2.728728
N    -3.812926  0.072137  1.360689
C    -4.821261  1.305460  2.879051
C    -4.584620  0.936049  0.694712
N    -5.205557  1.689163  1.610017
H    -3.490109  -0.234422  4.734422
H    -3.663620  -1.610894  3.642060
H    -5.218923  1.777229  3.768847
H    -4.690081  1.016039  -0.380869
H    -5.871780  2.427440  1.392227
N    -1.312545  -2.742095  4.920761
C    -2.202326  -3.655386  4.200288
H    -0.807030  -3.135491  5.717747
H    -3.175686  -3.733543  4.702158
H    -1.733428  -4.645679  4.204899
H    -2.318504  -3.331230  3.162811
Hg    1.057332  0.320439  4.088939
