30
Energy: -573016.641458 eV PBE+vdW (tier 2 basis)
C    -1.727969  -3.664178  0.251003
C    -0.828490  -2.533978  0.645557
O    0.213915  -2.332195  -0.094293
H    -1.245239  -4.613637  0.526084
H    -1.847052  -3.677727  -0.839166
H    -2.711049  -3.609302  0.729877
N    -0.986611  -1.704418  1.677152
C    -1.696691  -1.890603  2.918671
C    -3.170191  -1.516379  2.740687
O    -3.476479  -0.750355  1.729716
H    -2.647152  -0.634506  1.196338
H    -1.631476  -2.920579  3.308073
C    -1.067750  -0.879394  3.951257
C    0.392173  -1.014316  4.305380
N    1.493383  -0.725491  3.477137
C    0.900942  -1.242172  5.561538
C    2.604072  -0.807789  4.214854
N    2.266689  -1.109407  5.478412
H    -1.625498  -0.936014  4.895493
H    -1.238559  0.131539  3.549663
H    0.402256  -1.454327  6.499830
H    3.618011  -0.649952  3.865465
H    2.921260  -1.197416  6.253122
N    -4.115416  -1.895895  3.555789
C    -5.540377  -1.536902  3.466544
H    -3.840470  -2.499691  4.329356
H    -6.137058  -2.452085  3.547254
H    -5.736644  -1.044431  2.511840
H    -5.795746  -0.861860  4.292531
Hg    1.243329  -1.038766  1.366397
