30
Energy: -573016.253377 eV PBE+vdW (tier 2 basis)
C    -0.809085  0.063498  -0.411446
C    -1.252529  0.106141  1.021643
O    -1.742872  -0.832260  1.627181
H    -0.294387  0.971444  -0.745437
H    -1.692241  -0.097138  -1.044851
H    -0.155151  -0.805119  -0.555032
N    -1.083816  1.337617  1.686292
C    -1.486704  1.422637  3.068978
C    -2.548902  2.526089  3.231123
O    -2.321516  3.811923  3.399060
H    -0.660705  2.114779  1.189927
H    -2.037798  0.472883  3.194601
C    -0.324427  1.286599  4.143786
C    1.074475  1.768488  3.867565
N    1.436537  3.121653  3.801742
C    2.246375  1.062341  3.763415
C    2.761088  3.228504  3.649699
N    3.263043  1.985046  3.634103
H    -0.235036  0.203154  4.299996
H    -0.666591  1.674675  5.119267
H    2.436361  -0.004200  3.794481
H    3.334772  4.143910  3.561064
H    4.254966  1.764161  3.555210
N    -3.820858  2.207890  3.137516
C    -4.435252  0.884794  2.936014
H    -4.461320  3.003948  3.178788
H    -5.516082  1.008753  3.043056
H    -4.088417  0.171956  3.692143
H    -4.213098  0.499204  1.934855
Hg    -0.312249  4.196809  3.654493
