30
Energy: -573016.144185 eV PBE+vdW (tier 2 basis)
C    -0.733964  -0.095072  -0.630573
C    -0.563136  -0.032341  0.854435
O    0.557333  0.297607  1.327813
H    -1.724115  -0.459065  -0.927180
H    0.041892  -0.745929  -1.053270
H    -0.575742  0.908592  -1.048707
N    -1.643055  -0.342316  1.637052
C    -1.504386  -0.185341  3.067535
C    -0.904731  -1.429843  3.760301
O    0.288870  -1.365807  4.193495
H    -2.513894  -0.607455  1.185886
H    -0.677552  0.514330  3.052637
C    -2.509040  0.641341  3.886361
C    -1.769068  1.456155  4.935003
N    -0.406922  1.793823  4.922534
C    -2.325317  2.105096  6.011255
C    -0.170560  2.602270  5.961352
N    -1.318170  2.810320  6.624695
H    -3.284087  0.040217  4.377413
H    -3.024251  1.325917  3.194318
H    -3.352592  2.147852  6.354263
H    0.787526  3.022404  6.243929
H    -1.420250  3.395343  7.451750
N    -1.595284  -2.550685  3.896483
C    -2.958262  -2.846879  3.457963
H    -1.080898  -3.315521  4.337657
H    -2.938075  -3.546416  2.612501
H    -3.482867  -1.935245  3.159677
H    -3.512154  -3.306512  4.284525
Hg    1.205749  0.709158  3.690897
