30
Energy: -573016.443682 eV PBE+vdW (tier 2 basis)
C    -0.518599  -0.670186  -0.198682
C    -0.538025  -0.876697  1.262972
O    0.531525  -1.292627  1.852863
H    -1.445654  -0.222116  -0.569816
H    -0.424489  -1.668550  -0.663946
H    0.362893  -0.092713  -0.499776
N    -1.679745  -0.730282  2.005007
C    -2.490175  0.502070  2.131228
C    -1.611181  1.706563  1.733736
O    -0.385965  1.655735  1.979627
H    -1.715555  -1.342800  2.820778
H    -3.395464  0.425892  1.516188
C    -2.942820  0.651657  3.624023
C    -2.036274  1.282292  4.659086
N    -0.725111  0.915245  5.016107
C    -2.413504  2.243206  5.564903
C    -0.341274  1.642891  6.071703
N    -1.355963  2.442811  6.421814
H    -3.268539  -0.342351  3.975090
H    -3.858758  1.256634  3.623647
H    -3.353720  2.769307  5.682379
H    0.623186  1.602904  6.564911
H    -1.342697  3.088238  7.209792
N    -2.195224  2.773825  1.187034
C    -3.595351  2.943199  0.782476
H    -1.557261  3.548786  1.008365
H    -3.898335  2.184941  0.049870
H    -3.691533  3.923326  0.307529
H    -4.273972  2.920562  1.644597
Hg    0.410584  -0.196764  3.679496
