30
Energy: -573016.869774 eV PBE+vdW (tier 2 basis)
C    -0.522239  -1.135287  -0.381000
C    -0.228121  -0.507343  0.937435
O    1.046364  -0.478379  1.245986
H    -1.596915  -1.185153  -0.583340
H    -0.101012  -2.150937  -0.391105
H    -0.015893  -0.571959  -1.176844
N    -1.224377  -0.046239  1.672972
C    -1.372480  0.393100  3.069778
C    -2.877821  -0.011030  3.344805
O    -3.601349  -0.156396  2.359994
H    -2.204213  -0.176279  1.315328
H    -0.716177  -0.190942  3.733589
C    -1.214292  1.956530  3.288345
C    -0.209442  2.440141  4.297423
N    1.157244  2.138527  4.226922
C    -0.352538  3.303847  5.354018
C    1.808495  2.786107  5.200708
N    0.904126  3.498045  5.886928
H    -2.189296  2.368654  3.577835
H    -1.000820  2.417517  2.310411
H    -1.229494  3.803023  5.749204
H    2.872247  2.751031  5.406423
H    1.124140  4.100962  6.678720
N    -3.288660  -0.116496  4.615494
C    -2.479342  -0.160625  5.831285
H    -4.274022  -0.362548  4.702001
H    -3.145031  -0.028379  6.689513
H    -1.747189  0.655029  5.860080
H    -1.964210  -1.124927  5.945590
Hg    1.547365  0.769905  2.762900
