30
Energy: -573015.911658 eV PBE+vdW (tier 2 basis)
C    -0.134007  0.024359  0.086992
C    -0.065640  0.434201  1.534739
O    0.867461  1.052716  2.015519
H    0.619218  0.594088  -0.465019
H    -1.121882  0.207691  -0.356660
H    0.107464  -1.043148  -0.027663
N    -1.150449  0.120025  2.381418
C    -2.011298  -1.033586  2.220783
C    -3.479641  -0.651531  2.582779
O    -4.385669  -1.466588  2.995653
H    -0.935698  0.388059  3.343840
H    -2.089151  -1.234887  1.138588
C    -1.407494  -2.354030  2.801402
C    -0.935578  -2.393206  4.223125
N    -1.764660  -2.761877  5.283798
C    0.317602  -2.214639  4.758322
C    -1.052590  -2.793486  6.413809
N    0.214111  -2.468204  6.108588
H    -0.538694  -2.567274  2.163799
H    -2.090206  -3.197982  2.606937
H    1.261733  -1.961993  4.289083
H    -1.415274  -3.043831  7.404194
H    0.982870  -2.438561  6.777045
N    -3.820881  0.585921  2.284986
C    -5.157907  1.165027  2.398300
H    -3.067245  1.163549  1.902818
H    -5.653400  1.150480  1.417763
H    -5.062476  2.203484  2.732723
H    -5.754084  0.585259  3.107431
Hg    -3.830022  -2.709430  4.707661
