30
Energy: -573015.773118 eV PBE+vdW (tier 2 basis)
C    -0.109921  1.579293  -0.050340
C    -0.284299  1.483468  1.428591
O    0.690031  1.222068  2.212351
H    0.198997  0.599902  -0.444564
H    0.706743  2.280272  -0.267823
H    -1.018958  1.895148  -0.571730
N    -1.497954  1.700302  1.948692
C    -1.859904  1.623718  3.357940
C    -1.030537  0.593469  4.134459
O    -0.914880  -0.586225  3.674348
H    -2.280601  2.034708  1.345898
H    -1.714815  2.618944  3.807732
C    -3.363587  1.227343  3.490294
C    -4.304728  2.119799  2.751689
N    -4.052992  2.542698  1.476185
C    -5.570485  2.592947  3.159180
C    -5.111987  3.249779  1.100270
N    -6.049003  3.291195  2.100592
H    -3.627423  1.201684  4.555612
H    -3.472083  0.195128  3.114874
H    -6.127148  2.467835  4.081554
H    -5.248780  3.739393  0.141009
H    -6.949550  3.764363  2.053976
N    -0.555052  0.915946  5.334216
C    -0.585645  2.208742  6.021558
H    -0.108937  0.141460  5.827041
H    0.089317  2.153759  6.880089
H    -1.592968  2.444675  6.388281
H    -0.232148  3.009711  5.359105
Hg    1.126074  -1.018482  2.606006
