30
Energy: -573015.99646 eV PBE+vdW (tier 2 basis)
C    -0.376116  0.679550  0.052161
C    -0.168315  0.688257  1.535136
O    0.847406  1.310595  1.979442
H    0.472506  0.173211  -0.427290
H    -0.370741  1.717865  -0.308168
H    -1.315599  0.200428  -0.244834
N    -1.068274  0.054429  2.308077
C    -1.298718  0.193098  3.757088
C    -0.623793  -0.978297  4.509613
O    0.595472  -1.283994  4.231945
H    -1.789145  -0.455040  1.800397
H    -0.779465  1.109338  4.087679
C    -2.833553  0.414986  3.920762
C    -3.370281  0.721003  5.279014
N    -3.388638  -0.221355  6.275552
C    -4.016246  1.878785  5.729334
C    -4.017251  0.326202  7.305479
N    -4.407819  1.601194  7.001946
H    -3.354903  -0.479564  3.538695
H    -3.093999  1.241331  3.247028
H    -4.221187  2.828543  5.248330
H    -4.224185  -0.148439  8.259176
H    -4.930762  2.223488  7.614643
N    -1.278085  -1.685978  5.401911
C    -0.678532  -2.779906  6.162006
H    -2.239149  -1.366365  5.704798
H    -1.210029  -2.866090  7.114474
H    0.387843  -2.595026  6.327755
H    -0.788028  -3.723883  5.610006
Hg    2.009586  0.373636  3.684842
