30
Energy: -573015.821545 eV PBE+vdW (tier 2 basis)
C    0.722393  -0.283532  0.523345
C    -0.197216  0.519200  1.413567
O    -0.253869  1.775401  0.935404
H    0.363019  -0.260047  -0.513745
H    0.761719  -1.314918  0.887594
H    1.727671  0.155615  0.527877
N    -0.765555  -0.061418  2.422500
C    -1.816021  0.523828  3.230494
C    -1.281994  1.402825  4.391332
O    -1.469633  2.681149  4.354745
H    -5.531194  -0.706780  3.078321
H    -2.472688  1.219376  2.663786
C    -2.769231  -0.602204  3.737085
C    -3.508059  -1.281485  2.629771
N    -4.888086  -1.210361  2.471515
C    -3.067390  -2.096089  1.615572
C    -5.280694  -1.944949  1.423111
N    -4.178078  -2.483169  0.894586
H    -3.485912  -0.180350  4.456449
H    -2.183577  -1.359966  4.268991
H    -2.067812  -2.429032  1.371260
H    -6.298163  -2.081812  1.075418
H    -4.173668  -3.102142  0.086188
N    -0.627192  0.915821  5.429605
C    -0.227982  -0.462950  5.725741
H    -0.336817  1.628471  6.102533
H    -0.076794  -1.019138  4.796214
H    -0.965903  -0.958983  6.369347
H    0.724575  -0.421331  6.264584
Hg    -1.087850  3.187971  2.236809
