30
Energy: -573015.771729 eV PBE+vdW (tier 2 basis)
C    -1.327784  0.791711  -0.641692
C    -0.959842  0.700393  0.828427
O    0.369368  0.488666  0.889492
H    -2.391534  1.022037  -0.748187
H    -1.083785  -0.152163  -1.146651
H    -0.733433  1.577482  -1.123712
N    -1.895678  0.824985  1.708378
C    -1.977000  0.630469  3.161678
C    -1.152697  1.545960  4.107141
O    0.037621  1.273561  4.533674
H    -3.354570  -0.539743  1.276240
H    -3.013787  0.906801  3.404889
C    -1.851554  -0.865014  3.570336
C    -2.979074  -1.682645  3.016637
N    -3.615072  -1.376261  1.822453
C    -3.587962  -2.819535  3.485251
C    -4.570551  -2.273403  1.561728
N    -4.558757  -3.158445  2.565081
H    -1.854401  -0.959914  4.664907
H    -0.896177  -1.291901  3.222911
H    -3.413482  -3.403875  4.380025
H    -5.233151  -2.283621  0.704266
H    -5.182082  -3.960654  2.633357
N    -1.718133  2.639578  4.585248
C    -3.068769  3.166219  4.357646
H    -1.122800  3.169993  5.225785
H    -3.796351  2.683959  5.023791
H    -3.362498  3.043187  3.310704
H    -3.048244  4.236203  4.586742
Hg    1.138176  0.578971  2.804452
