30
Energy: -573016.496685 eV PBE+vdW (tier 2 basis)
C    -0.003571  -0.416855  0.065168
C    0.046804  -0.259053  1.546194
O    1.219083  -0.456572  2.072326
H    0.725165  0.257990  -0.403120
H    -1.002148  -0.228216  -0.343629
H    0.299889  -1.443098  -0.190011
N    -1.072114  0.046920  2.209494
C    -1.342788  0.026991  3.661350
C    -2.714472  -0.572706  4.117281
O    -2.660070  -1.203594  5.164030
H    -1.880308  0.194813  1.607380
H    -0.681890  -0.739154  4.091700
C    -1.132646  1.413383  4.394048
C    -0.415923  1.320693  5.709415
N    0.921378  0.907328  5.795891
C    -0.808392  1.612876  6.988475
C    1.313624  0.935170  7.076165
N    0.276506  1.370211  7.804166
H    -2.107843  1.885208  4.565027
H    -0.590290  2.103042  3.725977
H    -1.754671  1.969898  7.376630
H    2.289070  0.665434  7.463930
H    0.296603  1.503345  8.814371
N    -3.853611  -0.327762  3.431577
C    -4.095979  0.521503  2.270024
H    -4.663773  -0.785179  3.847354
H    -5.150138  0.817341  2.268673
H    -3.916447  -0.003625  1.316625
H    -3.516368  1.454071  2.313087
Hg    1.562488  0.130871  4.011207
