30
Energy: -573015.826045 eV PBE+vdW (tier 2 basis)
C    0.223182  1.300422  1.682815
C    -0.361729  0.016205  2.189838
O    0.298637  -1.045832  1.986634
H    1.263108  1.377579  2.025489
H    -0.335175  2.182507  2.015315
H    0.249106  1.270384  0.584862
N    -1.527522  0.085084  2.856086
C    -2.360480  -0.996292  3.400569
C    -1.568822  -1.958702  4.312252
O    -1.258389  -3.136821  3.958344
H    -2.029034  0.971908  2.792846
H    -3.071470  -0.481963  4.062950
C    -3.220093  -1.716647  2.340046
C    -4.224009  -0.804382  1.729667
N    -4.181481  0.549751  1.906825
C    -5.343731  -1.146186  0.939138
C    -5.237857  1.034520  1.269101
N    -5.962500  0.028292  0.675721
H    -3.705852  -2.594489  2.789052
H    -2.579368  -2.146898  1.520936
H    -5.724373  -2.100777  0.591820
H    -5.525550  2.079755  1.207689
H    -6.816801  0.145761  0.133741
N    -1.267147  -1.563737  5.544894
C    -1.687150  -0.349566  6.249089
H    -0.756686  -2.262089  6.089214
H    -2.741231  -0.412276  6.554046
H    -1.521394  0.540796  5.634254
H    -1.075932  -0.260528  7.152231
Hg    -0.414255  -3.232783  1.811538
