30
Energy: -573016.197562 eV PBE+vdW (tier 2 basis)
C    -1.478333  0.695246  0.074255
C    -1.154595  0.628672  1.538246
O    -0.559669  1.497400  2.161984
H    -2.195056  1.511498  -0.090295
H    -1.896150  -0.233752  -0.329076
H    -0.567632  0.959127  -0.477319
N    -1.569651  -0.526886  2.214476
C    -1.388738  -0.568938  3.651642
C    -0.773211  -1.940489  3.983281
O    -1.354263  -2.906577  4.664087
H    -2.180880  -1.195953  1.754299
H    -0.615051  0.203530  3.833859
C    -2.700821  -0.061060  4.362477
C    -2.670861  0.552227  5.737045
N    -2.749335  -0.205529  6.914284
C    -2.697427  1.866375  6.131656
C    -2.793561  0.611108  7.972402
N    -2.774021  1.869655  7.508179
H    -3.498095  -0.823367  4.311154
H    -3.045946  0.733435  3.688385
H    -2.688401  2.781510  5.550883
H    -2.847685  0.322807  9.015869
H    -2.832036  2.701843  8.093869
N    0.408816  -2.254270  3.489196
C    1.280779  -1.483624  2.600354
H    0.713687  -3.204090  3.714399
H    2.308836  -1.814296  2.778888
H    1.205400  -0.410866  2.803103
H    1.020171  -1.677019  1.551326
Hg    -2.241033  -2.147534  6.391768
