32
Energy: -570099.538506 eV PBE+vdW (tier 2 basis)
C    -0.197873  0.022834  -0.634425
C    -0.090859  -0.318490  0.820587
O    1.040546  -0.785154  1.190788
H    -1.219027  0.270610  -0.943385
H    0.162797  -0.831683  -1.223362
H    0.475108  0.864317  -0.852781
N    -1.164071  -0.105172  1.598503
C    -1.623390  -0.580305  2.943105
C    -1.163231  0.319253  4.100959
O    0.060938  0.637799  4.335444
H    -1.924362  0.325629  1.078113
H    -2.705662  -0.417658  2.854469
C    -1.523273  -2.126720  3.248854
C    -0.300260  -2.640256  4.040401
C    -1.834125  -2.941394  1.989847
C    -0.393712  -4.102469  4.501286
H    -2.363619  -2.271358  3.952310
H    -0.141142  -2.018164  4.936484
H    0.622888  -2.615317  3.388284
H    -2.714893  -2.555965  1.459838
H    -2.058132  -3.979359  2.257618
H    -0.989084  -2.960456  1.287889
H    0.456665  -4.361381  5.142083
H    -0.408494  -4.802669  3.659891
H    -1.308855  -4.243488  5.095182
N    -2.093446  0.771363  4.923368
C    -1.835094  1.573183  6.124960
H    -3.068409  0.612479  4.676817
H    -2.616000  1.355818  6.859977
H    -1.858332  2.642138  5.875169
H    -0.851422  1.320097  6.530215
Hg    1.544637  -0.581887  3.295962
