32
Energy: -570099.412097 eV PBE+vdW (tier 2 basis)
C    0.501566  0.106532  -0.050737
C    0.451615  -0.313023  1.386684
O    1.471649  -0.974742  1.784075
H    -0.360071  0.713056  -0.350511
H    0.548977  -0.792865  -0.680788
H    1.427201  0.670852  -0.225493
N    -0.628506  0.039987  2.099465
C    -1.174193  -0.204971  3.468963
C    -0.339078  0.488181  4.550498
O    0.870882  0.172669  4.781318
H    -1.282909  0.571662  1.531739
H    -2.114361  0.349785  3.405916
C    -1.648966  -1.695777  3.844872
C    -1.100912  -2.358032  5.147084
C    -1.663380  -2.635880  2.634985
C    0.116427  -3.279350  5.119332
H    -2.703032  -1.521444  4.101744
H    -1.916465  -3.018569  5.486416
H    -0.995377  -1.621430  5.955383
H    -2.144408  -3.583570  2.909625
H    -0.663760  -2.880838  2.245115
H    -2.241957  -2.218170  1.802527
H    1.154272  -2.768309  5.322547
H    0.168761  -3.980844  4.277520
H    0.197693  -3.888416  6.039091
N    -0.899513  1.437172  5.289231
C    -2.240340  2.030199  5.187011
H    -0.276081  1.831035  5.996182
H    -2.369484  2.705321  6.037687
H    -3.022180  1.263910  5.247452
H    -2.347542  2.618758  4.267166
Hg    1.630400  -1.711509  3.767250
