32
Energy: -570098.978262 eV PBE+vdW (tier 2 basis)
C    0.344431  -0.142348  0.172428
C    0.171911  -0.073401  1.655017
O    1.298529  -0.076709  2.312678
H    0.793247  0.796176  -0.183577
H    -0.613980  -0.311171  -0.333240
H    1.041292  -0.953158  -0.078133
N    -1.039381  -0.033986  2.173553
C    -1.528748  -0.043658  3.553267
C    -2.993807  -0.584354  3.388619
O    -3.526996  -0.459234  2.287918
H    -1.851396  -0.083441  1.528690
H    -0.947096  -0.772655  4.142830
C    -1.515987  1.398831  4.196184
C    -1.444835  1.397377  5.740782
C    -2.659165  2.281151  3.688520
C    -0.236789  0.767489  6.406415
H    -0.580393  1.900199  3.847448
H    -2.334966  0.874710  6.141344
H    -1.535272  2.439575  6.073397
H    -2.710093  2.301961  2.592985
H    -2.522168  3.312595  4.033645
H    -3.631170  1.927298  4.058858
H    -0.084535  1.056195  7.462374
H    0.771317  1.266407  6.036083
H    -0.168701  -0.328365  6.365603
N    -3.593473  -1.107706  4.473377
C    -4.958064  -1.638065  4.436421
H    -3.032147  -1.318022  5.293231
H    -5.407259  -1.528632  5.428934
H    -4.955547  -2.701713  4.158628
H    -5.537391  -1.081151  3.694136
Hg    1.413853  0.533187  4.320311
