32
Energy: -570099.071418 eV PBE+vdW (tier 2 basis)
C    -0.124595  -0.275219  -0.157484
C    -0.103126  -0.081468  1.316596
O    0.921747  -0.285420  2.036843
H    0.609957  0.410247  -0.610133
H    -1.097411  -0.083035  -0.617809
H    0.200117  -1.296565  -0.398891
N    -1.201036  0.287353  2.026374
C    -2.573014  0.130428  1.693660
C    -3.332842  0.974895  2.762132
O    -2.826503  1.130287  3.866906
H    -1.043681  0.484184  3.028881
H    -2.760925  0.440702  0.657704
C    -3.091599  -1.423938  1.805724
C    -4.483637  -1.606557  1.203115
C    -2.942979  -1.976948  3.208728
C    -4.696858  -1.092198  -0.217998
H    -2.353433  -1.900889  1.132421
H    -5.253853  -1.225046  1.889710
H    -4.637133  -2.701120  1.195288
H    -1.928525  -1.878484  3.613989
H    -3.171925  -3.054123  3.185732
H    -3.648556  -1.530441  3.923431
H    -5.665827  -1.428876  -0.606480
H    -3.926767  -1.459559  -0.910982
H    -4.715296  0.009394  -0.294440
N    -4.512889  1.501479  2.370818
C    -5.240932  2.464630  3.180450
H    -4.827994  1.338659  1.415858
H    -4.937767  3.498135  2.943998
H    -5.026883  2.274793  4.238541
H    -6.310772  2.365697  2.958893
Hg    3.107512  0.352070  1.557573
