32
Energy: -570099.290342 eV PBE+vdW (tier 2 basis)
C    0.970715  0.927955  0.637702
C    0.629775  -0.334792  1.365563
O    1.587161  -0.847114  2.045577
H    1.937474  0.817660  0.132761
H    1.075074  1.737901  1.376050
H    0.195399  1.204487  -0.087100
N    -0.618145  -0.821361  1.267108
C    -1.254592  -1.819288  2.132888
C    -1.000595  -3.282131  1.672355
O    -0.243262  -4.029362  2.419544
H    -1.253268  -0.265556  0.694796
H    -0.726413  -1.784351  3.101618
C    -2.699747  -1.403341  2.562196
C    -3.275936  -2.426773  3.563600
C    -3.703447  -1.063799  1.456759
C    -2.500249  -2.588116  4.872650
H    -2.505373  -0.471355  3.122701
H    -3.406753  -3.402793  3.065826
H    -4.295349  -2.088531  3.796912
H    -4.167974  -1.953831  1.019703
H    -3.301376  -0.443083  0.639890
H    -4.512452  -0.470534  1.900950
H    -1.524278  -3.082843  4.747083
H    -3.063724  -3.217981  5.571108
H    -2.340325  -1.621174  5.370223
N    -1.486857  -3.865122  0.596032
C    -2.400082  -3.399307  -0.445482
H    -1.175937  -4.836619  0.496772
H    -3.399672  -3.826325  -0.293489
H    -2.461125  -2.311429  -0.460554
H    -2.011845  -3.758202  -1.406617
Hg    1.418119  -2.772364  3.081308
