32
Energy: -570098.932526 eV PBE+vdW (tier 2 basis)
C    -0.465903  -1.966234  1.835486
C    -1.056723  -1.033268  2.830299
O    -0.999675  -1.210593  4.096657
H    0.631787  -1.950598  1.935096
H    -0.719871  -1.707188  0.802498
H    -0.798598  -2.990188  2.052194
N    -1.731460  0.054129  2.427955
C    -2.258477  1.031785  3.355278
C    -3.264240  1.868935  2.550534
O    -3.135258  1.909008  1.325176
H    -1.936312  0.229209  1.434512
H    -2.727992  0.514425  4.198805
C    -1.038904  1.946282  3.897795
C    -1.149612  2.094760  5.445406
C    -0.850792  3.257636  3.152438
C    0.167426  1.852052  6.141689
H    -0.150638  1.329401  3.696595
H    -1.916792  1.432487  5.870028
H    -1.489733  3.124235  5.659090
H    -0.728479  3.113430  2.069754
H    0.071689  3.741430  3.504794
H    -1.677466  3.960625  3.318245
H    0.078360  1.907489  7.236087
H    0.974135  2.511084  5.796378
H    0.545727  0.792808  5.970852
N    -4.221063  2.536745  3.229088
C    -5.252950  3.314435  2.563147
H    -4.329943  2.349761  4.224443
H    -5.571187  4.123679  3.230662
H    -6.133504  2.691021  2.333470
H    -4.854720  3.701360  1.617541
Hg    0.913769  -1.459503  5.306822
