32
Energy: -570099.282221 eV PBE+vdW (tier 2 basis)
C    0.065252  -1.405767  0.308006
C    -0.009365  -1.034615  1.756420
O    1.074178  -0.562189  2.251937
H    0.123100  -0.480450  -0.285653
H    -0.811512  -1.980832  -0.013311
H    0.981959  -1.975799  0.116639
N    -1.170913  -1.207232  2.407271
C    -1.594164  -0.617111  3.683178
C    -1.175108  -1.467286  4.917376
O    -0.233976  -1.004086  5.684962
H    -1.930427  -1.579090  1.836601
H    -1.002186  0.303601  3.826912
C    -3.054038  -0.044939  3.625157
C    -3.446440  0.465390  5.027952
C    -4.137101  -0.909284  2.970154
C    -4.693769  1.352896  5.032364
H    -2.923692  0.840443  2.978656
H    -2.605385  1.037047  5.455868
H    -3.608024  -0.395707  5.698846
H    -3.824125  -1.428034  2.049435
H    -4.956741  -0.253807  2.653174
H    -4.568913  -1.648232  3.652330
H    -4.868650  1.747325  6.039953
H    -5.595919  0.803484  4.737661
H    -4.578286  2.211332  4.357048
N    -1.693724  -2.619907  5.286490
C    -2.814087  -3.393829  4.756599
H    -1.258461  -3.001707  6.131820
H    -2.565801  -4.454990  4.874050
H    -2.977829  -3.176177  3.700532
H    -3.727620  -3.183836  5.328182
Hg    1.290032  -0.140931  4.384660
