32
Energy: -570099.563439 eV PBE+vdW (tier 2 basis)
C    -1.660179  -0.302798  -0.501112
C    -1.477668  0.021759  0.950603
O    -0.654822  -0.739988  1.568974
H    -1.795670  -1.386962  -0.609357
H    -0.736854  -0.041283  -1.038876
H    -2.512077  0.219785  -0.950053
N    -2.154919  1.064566  1.455336
C    -2.459632  1.546637  2.838675
C    -1.333190  2.454310  3.396639
O    -0.238829  2.006179  3.905203
H    -2.711499  1.538614  0.747831
H    -3.319428  2.213008  2.679652
C    -2.964045  0.505722  3.875336
C    -4.172544  -0.334618  3.382108
C    -3.300992  1.242825  5.178788
C    -3.906980  -1.533691  2.473963
H    -2.164390  -0.244818  4.114852
H    -4.899437  0.351278  2.914855
H    -4.659222  -0.700192  4.296832
H    -3.610898  0.521095  5.943076
H    -4.143209  1.933858  5.026376
H    -2.459791  1.813457  5.593477
H    -3.103599  -2.175012  2.865078
H    -3.668209  -1.260764  1.439192
H    -4.806645  -2.159303  2.421517
N    -1.524903  3.757017  3.385194
C    -0.574443  4.748583  3.907947
H    -2.420745  4.102551  3.047254
H    0.448947  4.430326  3.687531
H    -0.697424  4.850964  4.994115
H    -0.780375  5.708496  3.426402
Hg    0.057668  -0.112597  3.511595
