32
Energy: -570098.902474 eV PBE+vdW (tier 2 basis)
C    0.521809  0.336127  1.113567
C    0.492813  -0.532290  2.321572
O    1.534914  -0.984370  2.881027
H    1.138243  1.221652  1.332540
H    -0.463004  0.677151  0.783643
H    1.016798  -0.199064  0.290942
N    -0.668060  -0.952444  2.895055
C    -1.958503  -1.081203  2.302715
C    -2.924242  -1.251281  3.518466
O    -2.535091  -1.908637  4.476749
H    -0.554348  -1.494053  3.764783
H    -2.184929  -0.213780  1.674843
C    -2.074468  -2.416677  1.358627
C    -3.401441  -2.487929  0.604218
C    -1.672663  -3.674028  2.100165
C    -4.583108  -3.169483  1.277145
H    -1.289970  -2.157228  0.621651
H    -3.166298  -3.060058  -0.317633
H    -3.675604  -1.494189  0.213199
H    -2.290312  -3.869950  2.991477
H    -0.621970  -3.666821  2.413870
H    -1.816070  -4.544171  1.441197
H    -5.465413  -3.138829  0.626779
H    -4.870475  -2.675199  2.223391
H    -4.383242  -4.220264  1.520794
N    -4.144096  -0.658421  3.484328
C    -4.671603  0.325431  2.551027
H    -4.635885  -0.745497  4.378210
H    -5.763897  0.323140  2.640868
H    -4.399871  0.078863  1.519728
H    -4.316685  1.340039  2.792127
Hg    3.520191  0.183623  3.332287
