32
Energy: -570099.389836 eV PBE+vdW (tier 2 basis)
C    -1.671295  -1.065680  -0.158319
C    -1.082985  -0.814928  1.199125
O    0.155932  -1.111053  1.304237
H    -1.397313  -2.078712  -0.481921
H    -1.215521  -0.368012  -0.875423
H    -2.761425  -0.959959  -0.178976
N    -1.890185  -0.300957  2.139908
C    -1.882314  -0.155956  3.626188
C    -1.029928  0.995133  4.174138
O    0.148384  1.313203  3.782275
H    -2.817467  -0.121368  1.763073
H    -2.907930  0.193814  3.800225
C    -1.854591  -1.495061  4.455709
C    -0.631688  -2.436235  4.394803
C    -3.124313  -2.290031  4.102069
C    0.632870  -2.077290  5.165569
H    -1.950856  -1.153893  5.501312
H    -0.410117  -2.734514  3.359029
H    -0.980076  -3.372015  4.861546
H    -4.030708  -1.673609  4.172679
H    -3.248930  -3.130628  4.794417
H    -3.072792  -2.711383  3.088549
H    0.438460  -1.670103  6.168133
H    1.307654  -1.266627  4.716039
H    1.313309  -2.933672  5.246459
N    -1.557284  1.757355  5.123695
C    -2.932121  1.790744  5.640159
H    -0.921429  2.478644  5.470456
H    -3.639489  2.108937  4.862759
H    -2.963616  2.525874  6.449220
H    -3.228495  0.818433  6.050514
Hg    1.364259  -0.292454  2.907354
