32
Energy: -570099.530068 eV PBE+vdW (tier 2 basis)
C    -0.522994  -0.426794  -0.276770
C    -0.299206  -0.195691  1.184894
O    0.918048  -0.327233  1.569923
H    -1.567493  -0.283789  -0.574875
H    -0.222076  -1.458307  -0.514373
H    0.131235  0.237700  -0.856088
N    -1.354229  0.130626  1.950542
C    -1.645494  0.018444  3.415137
C    -1.314587  1.306262  4.201748
O    -0.111555  1.655126  4.524361
H    -2.203435  0.235974  1.400021
H    -2.737694  -0.072409  3.435342
C    -1.128955  -1.263857  4.126612
C    -1.436990  -2.546898  3.317942
C    -1.676337  -1.295876  5.559798
C    -2.914456  -2.796240  3.006023
H    -0.013591  -1.242950  4.216831
H    -1.041493  -3.382944  3.912182
H    -0.849213  -2.554601  2.387737
H    -2.774825  -1.307184  5.569715
H    -1.338091  -0.445122  6.166070
H    -1.337230  -2.207131  6.065962
H    -3.019699  -3.763675  2.499642
H    -3.350486  -2.044812  2.330258
H    -3.533375  -2.842348  3.910417
N    -2.284320  2.085498  4.635686
C    -3.740986  1.924933  4.505629
H    -1.965754  2.887116  5.185938
H    -4.201596  2.874733  4.792585
H    -4.109811  1.140508  5.178071
H    -4.026725  1.711043  3.470264
Hg    1.379476  0.485988  3.505624
