32
Energy: -570099.056839 eV PBE+vdW (tier 2 basis)
C    0.029772  -0.289083  0.507523
C    -0.196517  0.556539  1.711042
O    0.660450  1.370673  2.162819
H    0.250550  0.370716  -0.346137
H    -0.819607  -0.922425  0.238147
H    0.918744  -0.916195  0.662461
N    -1.336677  0.485969  2.452441
C    -2.260042  -0.588951  2.568005
C    -3.506968  0.036952  3.272658
O    -3.342621  0.944830  4.074262
H    -1.410079  1.177536  3.214171
H    -2.486411  -1.018382  1.584564
C    -1.686078  -1.812438  3.502579
C    -2.589696  -3.046161  3.463825
C    -1.274684  -1.338015  4.879956
C    -3.681367  -3.179464  4.514384
H    -0.782069  -2.045868  2.907937
H    -1.895028  -3.901136  3.595261
H    -2.988811  -3.198451  2.446865
H    -0.474381  -0.589041  4.852978
H    -0.898113  -2.197455  5.456582
H    -2.110498  -0.926267  5.465498
H    -3.284082  -3.207712  5.536664
H    -4.258504  -4.097891  4.353312
H    -4.402912  -2.342192  4.481148
N    -4.709092  -0.471676  2.912314
C    -5.961781  0.170729  3.282178
H    -4.738877  -1.207888  2.209497
H    -6.258757  0.924649  2.535034
H    -5.831540  0.671691  4.248240
H    -6.745574  -0.594743  3.327000
Hg    1.992042  2.857747  0.919007
