32
Energy: -570099.600554 eV PBE+vdW (tier 2 basis)
C    -0.934956  -1.827322  0.075897
C    -0.724817  -1.034359  1.326896
O    0.089949  -0.047876  1.215349
H    0.013882  -1.952507  -0.456794
H    -1.615241  -1.260949  -0.580163
H    -1.386326  -2.804989  0.285284
N    -1.390186  -1.391977  2.437069
C    -1.772015  -0.567705  3.608017
C    -0.787434  -0.772880  4.790309
O    0.250336  -0.014837  4.943288
H    -1.979002  -2.216192  2.311175
H    -1.670141  0.495789  3.320902
C    -3.267039  -0.754656  3.973956
C    -4.193359  -0.635022  2.730719
C    -3.649844  0.271181  5.051324
C    -4.568345  -1.950574  2.043613
H    -3.401072  -1.777614  4.377534
H    -3.761836  0.080030  2.010388
H    -5.121656  -0.160736  3.075618
H    -3.642008  1.290753  4.640384
H    -2.995603  0.256883  5.933688
H    -4.668537  0.070901  5.403244
H    -3.726440  -2.475976  1.562730
H    -5.297526  -1.767399  1.244922
H    -5.030945  -2.652542  2.750085
N    -1.011203  -1.715088  5.675888
C    -0.163942  -2.011782  6.837771
H    -1.898616  -2.212704  5.603260
H    -0.491749  -1.416116  7.700380
H    0.876962  -1.769598  6.605911
H    -0.264148  -3.075610  7.073316
Hg    0.793857  0.857474  3.043039
