32
Energy: -570098.337226 eV PBE+vdW (tier 2 basis)
C    -0.016663  -0.557944  0.531363
C    -0.256540  -0.372236  1.985973
O    0.706968  -0.453913  2.806299
H    0.519488  -1.496614  0.339334
H    0.663192  0.249465  0.210288
H    -0.928752  -0.486134  -0.067436
N    -1.495568  -0.086506  2.491191
C    -2.719417  -0.864576  2.233455
C    -2.220149  -2.315008  2.575810
O    -1.815858  -2.398944  3.792473
H    -1.441742  0.260691  3.451294
H    -3.380775  -0.614744  3.075070
C    -3.545289  -0.579783  0.944285
C    -3.597897  0.956990  0.695570
C    -4.937427  -1.195181  1.105469
C    -4.113139  1.839313  1.819166
H    -3.046284  -1.024573  0.073782
H    -4.260814  1.062718  -0.181246
H    -2.603216  1.301582  0.377579
H    -5.496733  -1.109657  0.165277
H    -5.516515  -0.686671  1.886828
H    -4.918815  -2.263106  1.368250
H    -4.197130  2.879865  1.469787
H    -3.415895  1.893320  2.674373
H    -5.103642  1.545368  2.186178
N    -2.101640  -3.348074  1.758902
C    -2.499258  -3.567900  0.362594
H    -1.670808  -4.154860  2.217719
H    -2.326792  -4.623948  0.137384
H    -1.886052  -2.963857  -0.317960
H    -3.558911  -3.341085  0.211234
Hg    0.385785  -2.151933  4.413351
