32
Energy: -570099.118976 eV PBE+vdW (tier 2 basis)
C    0.633915  -0.499038  2.132479
C    -0.013877  0.184816  3.281840
O    0.585324  0.631466  4.246809
H    0.222677  -0.161412  1.171438
H    0.413836  -1.579240  2.206778
H    1.717712  -0.355790  2.167994
N    -1.491212  0.297018  3.317930
C    -2.201861  1.188146  2.372715
C    -2.055570  2.685914  2.748418
O    -1.773067  3.097261  3.916166
H    -1.926082  -0.634308  3.281611
H    -1.729815  1.096292  1.380975
C    -3.698395  0.739504  2.241522
C    -4.383400  0.284084  3.551774
C    -3.803875  -0.361844  1.175492
C    -4.527482  1.268214  4.707438
H    -4.245868  1.622420  1.877758
H    -3.954002  -0.667353  3.910597
H    -5.405260  -0.002346  3.254827
H    -3.414592  -0.031739  0.203722
H    -4.849799  -0.655547  1.028093
H    -3.259182  -1.274759  1.466391
H    -3.606573  1.317217  5.365820
H    -5.307888  0.950829  5.410612
H    -4.729810  2.301235  4.398183
N    -2.248716  3.587864  1.796201
C    -2.602913  3.408769  0.384999
H    -2.175592  4.553611  2.121707
H    -2.129031  4.213334  -0.186843
H    -3.690196  3.467342  0.246151
H    -2.238863  2.453681  -0.006227
Hg    -1.414402  1.466674  5.433104
