32
Energy: -570099.063998 eV PBE+vdW (tier 2 basis)
C    -1.739299  -1.860650  0.081489
C    -0.470629  -1.102992  0.239809
O    0.586792  -1.415553  -0.284599
H    -2.603399  -1.194452  -0.043435
H    -1.911281  -2.429125  1.013985
H    -1.658225  -2.566803  -0.750069
N    -0.446989  0.078494  1.137966
C    -1.180255  1.306025  0.768178
C    -0.278483  2.294763  -0.042624
O    0.991894  2.314801  -0.006210
H    -0.700082  -0.190462  2.098393
H    -1.976994  1.025564  0.058469
C    -1.825252  1.976098  2.043435
C    -3.357690  2.118157  1.886079
C    -1.132710  3.262826  2.508937
C    -3.871080  3.035530  0.774488
H    -1.679219  1.237173  2.851961
H    -3.732013  2.488690  2.851602
H    -3.799338  1.115980  1.765949
H    -0.050249  3.134799  2.644328
H    -1.543440  3.554114  3.483211
H    -1.294411  4.110307  1.831543
H    -3.707120  2.621128  -0.237191
H    -3.453612  4.050550  0.830321
H    -4.959505  3.146025  0.852885
N    -0.923961  3.192929  -0.759854
C    -0.284733  4.278146  -1.511334
H    -1.943096  3.211556  -0.673072
H    -0.968016  4.590793  -2.306307
H    0.656537  3.923582  -1.942268
H    -0.079933  5.131979  -0.851507
Hg    1.924080  0.402198  0.678386
