32
Energy: -570098.719102 eV PBE+vdW (tier 2 basis)
C    0.127459  -0.080758  -0.391416
C    0.241318  -0.296976  1.074579
O    1.367816  -0.425858  1.622818
H    -0.052944  -1.035683  -0.908130
H    1.084192  0.313739  -0.754207
H    -0.680224  0.614052  -0.640520
N    -0.850506  -0.295279  1.937902
C    -2.033119  -1.105224  1.816936
C    -1.436289  -2.607358  1.967434
O    -0.391427  -2.853111  1.330684
H    -0.540490  -0.154523  2.904456
H    -2.621303  -0.928099  2.730800
C    -2.962093  -0.943143  0.590501
C    -3.750244  0.384193  0.788272
C    -3.923466  -2.128256  0.450952
C    -2.966243  1.676126  0.740450
H    -2.353444  -0.885861  -0.321365
H    -4.351505  0.323757  1.711285
H    -4.498802  0.379066  -0.028375
H    -4.552152  -2.262095  1.343793
H    -3.401562  -3.070351  0.237505
H    -4.602327  -1.948441  -0.390738
H    -3.634549  2.531461  0.924226
H    -2.469814  1.831492  -0.226472
H    -2.194072  1.759325  1.531157
N    -2.034704  -3.412108  2.827940
C    -1.510255  -4.724847  3.215342
H    -2.908375  -3.104981  3.251309
H    -2.347053  -5.334533  3.571835
H    -0.780439  -4.629425  4.033222
H    -1.041234  -5.202508  2.349216
Hg    1.895782  -2.687404  2.242750
