32
Energy: -570098.852127 eV PBE+vdW (tier 2 basis)
C    1.447680  0.525104  2.408500
C    0.954323  1.924297  2.486926
O    1.801926  2.883643  2.469217
H    1.796449  0.299621  1.389134
H    0.689178  -0.199408  2.723319
H    2.330097  0.434182  3.059153
N    -0.354771  2.230697  2.599870
C    -1.454464  1.652214  1.828728
C    -1.425371  2.449059  0.497090
O    -0.977843  3.647250  0.459717
H    -0.527523  3.206434  2.853524
H    -1.234621  0.593681  1.630502
C    -2.820950  1.763145  2.587055
C    -2.791272  0.959485  3.902756
C    -3.990339  1.308128  1.702155
C    -1.994458  1.536436  5.064375
H    -2.961620  2.833721  2.823394
H    -2.491316  -0.082798  3.696090
H    -3.844566  0.873777  4.223633
H    -4.916924  1.336103  2.287045
H    -3.870731  0.267797  1.360725
H    -4.158435  1.960851  0.835760
H    -2.200822  0.974410  5.985644
H    -2.244480  2.589496  5.254342
H    -0.902537  1.467755  4.922426
N    -1.915733  1.884940  -0.600176
C    -1.909017  2.467016  -1.936775
H    -2.430022  1.009831  -0.483030
H    -1.690940  1.678426  -2.666669
H    -1.170577  3.270208  -1.989949
H    -2.904070  2.882985  -2.161327
Hg    1.133654  4.492450  1.007872
