32
Energy: -570098.995036 eV PBE+vdW (tier 2 basis)
C    0.194682  -0.337693  0.715435
C    -0.054129  -0.356113  2.183153
O    0.765041  -0.779570  3.048228
H    1.266334  -0.424462  0.511910
H    -0.199625  0.570305  0.241542
H    -0.293990  -1.205795  0.245194
N    -1.255826  0.028476  2.698631
C    -2.514044  0.074962  2.046147
C    -3.420181  0.905806  3.009900
O    -3.174895  0.886718  4.209495
H    -1.318795  0.063424  3.728838
H    -2.413720  0.501623  1.040086
C    -3.177039  -1.438926  1.872975
C    -3.871220  -1.540521  0.504227
C    -3.994237  -1.873416  3.071935
C    -5.127406  -0.723723  0.243343
H    -2.269468  -2.061410  1.826412
H    -4.131694  -2.614573  0.434473
H    -3.134064  -1.367279  -0.294038
H    -4.959720  -1.359140  3.150534
H    -3.457204  -1.745929  4.022721
H    -4.199278  -2.951703  2.987004
H    -5.839283  -0.741675  1.077750
H    -5.660824  -1.116529  -0.634567
H    -4.895046  0.320179  -0.031066
N    -4.414405  1.619281  2.440975
C    -5.214087  2.574113  3.189420
H    -4.524463  1.580077  1.429369
H    -4.758962  3.578291  3.169553
H    -5.282465  2.245434  4.232640
H    -6.203355  2.641223  2.720367
Hg    3.058238  -0.286235  3.234055
