32
Energy: -570099.192078 eV PBE+vdW (tier 2 basis)
C    -3.044052  -0.568235  -1.013450
C    -2.935424  0.294828  0.192204
O    -3.418029  1.411358  0.288424
H    -3.800153  -0.170342  -1.696603
H    -3.253358  -1.614457  -0.752723
H    -2.064205  -0.560148  -1.525191
N    -2.144564  -0.190053  1.349398
C    -2.678400  -1.282546  2.196008
C    -3.687603  -0.754025  3.253749
O    -3.631576  0.401903  3.784440
H    -1.184641  -0.428426  1.064455
H    -3.247635  -1.978201  1.556277
C    -1.489181  -2.065686  2.849098
C    -1.919860  -3.420174  3.446145
C    -0.704828  -1.225662  3.863319
C    -2.634736  -4.378018  2.491773
H    -0.831756  -2.300238  1.990316
H    -2.506543  -3.259054  4.364896
H    -0.994117  -3.900746  3.793777
H    -0.307984  -0.287186  3.447578
H    0.167810  -1.793988  4.207803
H    -1.302917  -0.985245  4.752827
H    -3.636409  -4.041983  2.169386
H    -2.787756  -5.351403  2.972876
H    -2.048436  -4.558081  1.579880
N    -4.602098  -1.614032  3.662817
C    -5.573382  -1.358403  4.731743
H    -4.561439  -2.557928  3.278186
H    -6.453993  -1.981870  4.550601
H    -5.851678  -0.300218  4.728074
H    -5.142470  -1.614436  5.708935
Hg    -2.524014  1.891350  2.538953
