32
Energy: -570099.435663 eV PBE+vdW (tier 2 basis)
C    1.388989  0.239139  0.345294
C    0.940724  -0.529562  1.551270
O    1.735562  -1.451978  1.938671
H    0.621488  0.918607  -0.040637
H    1.671094  -0.474172  -0.441315
H    2.296538  0.804273  0.600935
N    -0.231156  -0.190894  2.112345
C    -1.192325  -0.842315  3.054546
C    -0.894459  -0.549668  4.528411
O    0.267990  -0.685771  5.066867
H    -0.651740  0.609336  1.646707
H    -2.111356  -0.292362  2.819765
C    -1.590174  -2.344994  2.778622
C    -0.827592  -3.452314  3.540084
C    -1.707047  -2.598446  1.272879
C    -1.434843  -4.858615  3.419867
H    -2.609394  -2.393810  3.203526
H    -0.779380  -3.205994  4.614849
H    0.213219  -3.560113  3.119823
H    -2.261302  -1.798364  0.765118
H    -2.255233  -3.528295  1.087788
H    -0.724644  -2.697576  0.791268
H    -0.901776  -5.567085  4.063897
H    -1.394021  -5.239324  2.394213
H    -2.483738  -4.838433  3.749804
N    -1.869548  -0.142471  5.324532
C    -3.234502  0.288759  4.990961
H    -1.582337  -0.023288  6.299243
H    -3.815059  0.294787  5.918317
H    -3.715038  -0.407796  4.296419
H    -3.232980  1.305224  4.575916
Hg    1.627009  -2.051908  4.031758
