32
Energy: -570099.209463 eV PBE+vdW (tier 2 basis)
C    0.152810  -1.101549  3.209754
C    -0.219554  -0.280001  4.389658
O    0.453475  -0.207740  5.409771
H    0.058862  -0.526102  2.278029
H    -0.564213  -1.937749  3.128170
H    1.164790  -1.498787  3.326283
N    -1.496905  0.458918  4.384968
C    -1.695538  1.606894  3.474499
C    -1.557731  2.982375  4.222639
O    -1.510718  3.136189  5.483719
H    -2.290674  -0.190031  4.280766
H    -0.875584  1.610465  2.736420
C    -3.066519  1.491422  2.741553
C    -4.246273  1.535567  3.735108
C    -3.074512  0.266634  1.818770
C    -5.618968  1.626673  3.063147
H    -3.139686  2.384695  2.099723
H    -4.122615  2.398509  4.410348
H    -4.232757  0.637465  4.381643
H    -2.219328  0.259528  1.129645
H    -3.981213  0.266157  1.204138
H    -3.083635  -0.686487  2.373160
H    -5.677439  2.494450  2.392405
H    -6.402962  1.740910  3.820417
H    -5.858968  0.728913  2.481436
N    -1.514614  4.047570  3.444701
C    -1.438463  5.433052  3.927354
H    -1.618941  3.909139  2.441312
H    -0.989917  6.044497  3.139071
H    -0.821470  5.473025  4.830163
H    -2.442571  5.812831  4.156451
Hg    -1.026364  1.283576  6.621513
