32
Energy: -570099.322461 eV PBE+vdW (tier 2 basis)
C    0.622765  1.775827  1.034188
C    0.124103  0.684642  1.928498
O    0.252042  0.914188  3.184686
H    1.640969  2.059005  1.328093
H    -0.015225  2.661585  1.175883
H    0.599821  1.485652  -0.022774
N    -0.405698  -0.413925  1.368076
C    -1.306464  -1.421081  1.952260
C    -0.565635  -2.646383  2.555770
O    -0.391452  -2.698246  3.843107
H    -0.416051  -0.404574  0.347075
H    -1.773354  -0.962421  2.841662
C    -2.522314  -1.737636  1.002407
C    -2.272020  -1.449971  -0.494654
C    -3.748181  -0.969047  1.521823
C    -3.237637  -2.201315  -1.417008
H    -2.729744  -2.813278  1.119947
H    -1.246190  -1.724431  -0.800417
H    -2.374113  -0.366506  -0.674731
H    -4.012478  -1.266905  2.545487
H    -4.623116  -1.171542  0.894300
H    -3.575649  0.117206  1.501504
H    -3.030500  -1.956419  -2.465046
H    -4.282759  -1.934661  -1.220384
H    -3.141055  -3.289704  -1.303165
N    -0.141036  -3.697072  1.884122
C    -0.279314  -4.056305  0.469949
H    0.299917  -4.403300  2.479717
H    0.427043  -4.867235  0.269846
H    -0.031816  -3.207660  -0.173197
H    -1.293953  -4.411579  0.249594
Hg    -0.112378  -0.686486  4.595106
