32
Energy: -570099.148919 eV PBE+vdW (tier 2 basis)
C    -0.254376  -0.215506  -0.640965
C    0.031621  0.109297  0.780214
O    1.141967  0.371052  1.218225
H    -1.130456  0.333807  -1.013359
H    -0.505255  -1.288897  -0.709442
H    0.623518  -0.013139  -1.260963
N    -1.064344  0.072501  1.772192
C    -2.152989  1.083605  1.729783
C    -1.663459  2.469512  2.202962
O    -0.706167  2.616670  3.028655
H    -1.505515  -0.858217  1.802153
H    -2.486364  1.193607  0.685275
C    -3.372299  0.599096  2.583794
C    -3.232771  0.725663  4.123216
C    -3.840466  -0.789559  2.125803
C    -2.271793  -0.186976  4.884626
H    -4.172951  1.304337  2.312168
H    -4.235756  0.511891  4.527678
H    -3.049307  1.773561  4.402231
H    -3.160441  -1.609242  2.412113
H    -4.001187  -0.836055  1.040180
H    -4.798202  -1.030973  2.603564
H    -2.507359  -0.211024  5.956667
H    -1.203608  0.203573  4.890228
H    -2.225724  -1.220687  4.521336
N    -2.296137  3.553750  1.779697
C    -3.447117  3.690698  0.881940
H    -1.945542  4.421095  2.191706
H    -3.304440  4.596342  0.282716
H    -4.375546  3.789746  1.458867
H    -3.531228  2.840298  0.199029
Hg    0.401431  0.715463  3.549127
