22
Energy: -13494.4034469 eV PBE+vdW (tier 2 basis)
C    0.432860  -1.719362  0.901111
C    0.596358  -0.663659  1.974323
O    1.701436  -0.355999  2.417781
H    0.490441  -1.229661  -0.081602
H    -0.512186  -2.271937  0.940826
H    1.275615  -2.412363  0.979916
N    -0.524130  -0.009277  2.437600
C    -1.946878  -0.219994  2.152767
C    -2.402923  -1.677574  2.419816
O    -2.949650  -2.353302  1.550229
H    -0.286632  0.711194  3.112506
H    -2.471525  0.400692  2.897490
C    -2.377425  0.250579  0.764316
H    -2.061412  1.290559  0.616449
H    -3.466959  0.188906  0.658927
H    -1.938875  -0.370239  -0.024266
N    -2.181324  -2.181041  3.670402
C    -1.588103  -1.539941  4.832781
H    -2.478131  -3.147350  3.762455
H    -1.971722  -0.519332  4.966562
H    -0.490967  -1.495447  4.778668
H    -1.870868  -2.111452  5.723944
