22
Energy: -13494.4090109 eV PBE+vdW (tier 2 basis)
C    -0.209031  -0.863513  2.247194
C    -0.550675  0.517046  1.726351
O    -0.070568  1.535691  2.220031
H    -0.994079  -1.201659  2.938929
H    0.728442  -0.785827  2.804504
H    -0.118110  -1.625513  1.465375
N    -1.461247  0.626000  0.697963
C    -2.125667  -0.402975  -0.106306
C    -2.802893  -1.500285  0.751101
O    -2.546053  -2.691451  0.596647
H    -1.608171  1.592901  0.423492
H    -2.951198  0.127122  -0.610593
C    -1.230645  -1.010756  -1.186327
H    -0.818109  -0.210433  -1.813210
H    -1.801276  -1.702321  -1.817161
H    -0.400177  -1.575322  -0.747724
N    -3.721716  -1.087858  1.675755
C    -4.188345  0.255766  1.977764
H    -4.115111  -1.857622  2.207775
H    -4.362303  0.834338  1.060781
H    -3.486317  0.816878  2.610887
H    -5.147751  0.178791  2.501773
