22
Energy: -13494.7193025 eV PBE+vdW (tier 2 basis)
C    -2.225285  -0.642977  0.281188
C    -0.957060  -0.764970  1.105827
O    0.122058  -1.067637  0.608324
H    -3.134499  -0.509161  0.880894
H    -2.331703  -1.539203  -0.340966
H    -2.120246  0.214147  -0.396764
N    -1.108925  -0.525620  2.454630
C    0.026128  -0.407052  3.363005
C    0.147530  -1.569811  4.375474
O    0.907509  -1.486231  5.337392
H    -2.000826  -0.160780  2.772506
H    0.916576  -0.490757  2.719072
C    0.029845  0.941424  4.081857
H    0.122792  1.760574  3.358472
H    0.868814  0.981195  4.784265
H    -0.894929  1.085234  4.660420
N    -0.609988  -2.665732  4.099146
C    -0.531802  -3.885997  4.876313
H    -1.163345  -2.641441  3.250401
H    -1.528210  -4.204295  5.211745
H    0.093407  -3.680792  5.752068
H    -0.073841  -4.702119  4.298731
