22
Energy: -13494.443118 eV PBE+vdW (tier 2 basis)
C    0.924981  0.782767  0.858494
C    0.266579  -0.393807  1.550842
O    0.864340  -1.077799  2.376879
H    0.257859  1.648518  0.754231
H    1.257403  0.490800  -0.147169
H    1.804959  1.065624  1.442378
N    -1.036867  -0.701653  1.214708
C    -1.996809  0.091745  0.437513
C    -3.429428  -0.425069  0.669245
O    -4.368124  0.351582  0.806475
H    -1.428583  -1.386917  1.856321
H    -2.024512  1.129914  0.801821
C    -1.710796  0.095221  -1.073908
H    -0.759133  0.588213  -1.301326
H    -2.506660  0.639972  -1.597763
H    -1.666743  -0.928933  -1.467530
N    -3.566194  -1.785746  0.676633
C    -4.858079  -2.436196  0.804166
H    -2.760968  -2.352560  0.433168
H    -4.800511  -3.269158  1.516084
H    -5.219729  -2.815952  -0.162863
H    -5.570984  -1.691565  1.172602
