22
Energy: -13494.6974465 eV PBE+vdW (tier 2 basis)
C    1.073623  -0.407715  0.993066
C    0.225475  0.279194  2.047079
O    0.721081  0.934002  2.965623
H    1.686054  0.347966  0.485615
H    0.487533  -0.954956  0.244787
H    1.759683  -1.103207  1.492228
N    -1.122527  0.129693  1.902225
C    -2.060516  0.656380  2.871566
C    -3.296237  -0.253420  2.831781
O    -3.531387  -0.956926  1.846196
H    -1.528945  -0.494035  1.207937
H    -1.568342  0.619236  3.855469
C    -2.444790  2.116638  2.565685
H    -3.126934  2.527133  3.321394
H    -2.932001  2.182013  1.584371
H    -1.536572  2.730290  2.554535
N    -4.135919  -0.236970  3.904206
C    -4.028500  0.523518  5.136875
H    -4.964805  -0.808353  3.768940
H    -4.474838  -0.052932  5.955985
H    -4.540800  1.496498  5.078190
H    -2.978336  0.701955  5.392247
