22
Energy: -13494.338913 eV PBE+vdW (tier 2 basis)
C    -0.241427  -0.062973  -0.091001
C    0.008806  -0.056836  1.408174
O    1.102268  0.217837  1.884505
H    0.681461  -0.350526  -0.603999
H    -0.499571  0.959971  -0.399466
H    -1.055544  -0.733014  -0.396822
N    -1.096938  -0.406515  2.160918
C    -1.252453  -0.136017  3.583932
C    -1.561546  1.371627  3.805184
O    -1.391484  2.202461  2.919604
H    -1.967658  -0.427516  1.641524
H    -2.146133  -0.703983  3.891939
C    -0.066952  -0.632647  4.427157
H    -0.324118  -0.637468  5.492885
H    0.817604  -0.010772  4.268524
H    0.184259  -1.659369  4.134244
N    -2.063740  1.740630  5.025606
C    -2.386210  0.928228  6.184715
H    -2.198693  2.744280  5.102084
H    -1.530907  0.794696  6.865566
H    -2.745800  -0.063555  5.884890
H    -3.196106  1.411881  6.744155
