22
Energy: -13494.6828205 eV PBE+vdW (tier 2 basis)
C    -0.580183  1.359649  2.087634
C    -0.028232  -0.013295  1.757832
O    0.885628  -0.531197  2.392971
H    -0.378704  2.070447  1.273334
H    -0.086837  1.714074  2.996002
H    -1.667379  1.340907  2.244014
N    -0.610584  -0.680619  0.699277
C    -1.648556  -0.201785  -0.205515
C    -3.095652  -0.357187  0.324065
O    -4.026053  0.196024  -0.257538
H    -0.146172  -1.555929  0.469925
H    -1.523598  0.879251  -0.364914
C    -1.529407  -0.905330  -1.560224
H    -1.626163  -1.994843  -1.444898
H    -0.560342  -0.686209  -2.026111
H    -2.329147  -0.562026  -2.224969
N    -3.233998  -1.139590  1.426506
C    -4.516650  -1.403703  2.047505
H    -2.385200  -1.518682  1.832989
H    -4.741970  -2.479135  2.050883
H    -5.281508  -0.880805  1.463139
H    -4.541295  -1.034016  3.082094
