22
Energy: -13494.5653416 eV PBE+vdW (tier 2 basis)
C    -0.048335  -0.708762  -0.263388
C    0.036166  -0.378165  1.213198
O    1.069084  -0.551801  1.853988
H    0.339197  0.144426  -0.837376
H    -1.058371  -0.932246  -0.623498
H    0.609401  -1.562491  -0.454782
N    -1.089044  0.117640  1.845657
C    -2.365483  0.566773  1.279458
C    -3.234449  -0.586574  0.711931
O    -4.102966  -0.381612  -0.132479
H    -0.887087  0.395224  2.802142
H    -2.940193  0.922351  2.150308
C    -2.261674  1.735348  0.296066
H    -1.724151  2.568947  0.764393
H    -3.265315  2.068586  0.011491
H    -1.736986  1.452950  -0.623648
N    -3.003010  -1.807793  1.259817
C    -3.765873  -2.979229  0.869896
H    -2.240555  -1.894179  1.921426
H    -3.292141  -3.870214  1.294455
H    -3.794470  -3.071677  -0.223718
H    -4.803744  -2.920504  1.227666
