22
Energy: -13494.6286453 eV PBE+vdW (tier 2 basis)
C    -0.336187  0.062827  0.095460
C    -0.357579  -0.530826  1.491118
O    0.511728  -1.307700  1.883754
H    -0.315151  -0.754751  -0.635534
H    0.591876  0.634799  -0.027911
H    -1.189873  0.716441  -0.122567
N    -1.414867  -0.149041  2.273928
C    -1.567466  -0.564162  3.666095
C    -2.945218  -1.241476  3.835116
O    -3.891033  -0.651823  4.357013
H    -2.082805  0.519502  1.906118
H    -0.761897  -1.292911  3.830314
C    -1.402448  0.605622  4.631323
H    -2.188339  1.355897  4.480892
H    -0.419813  1.069595  4.481586
H    -1.475070  0.259735  5.669874
N    -3.074923  -2.519905  3.371163
C    -2.140561  -3.309936  2.586223
H    -4.025865  -2.868240  3.456732
H    -2.270820  -4.371644  2.829187
H    -1.104194  -3.035310  2.807798
H    -2.293495  -3.176693  1.503318
