22
Energy: -13494.3018235 eV PBE+vdW (tier 2 basis)
C    0.273169  -0.327617  0.396874
C    -0.277137  0.492756  1.543422
O    0.189837  1.591613  1.833821
H    -0.445182  -0.363780  -0.433496
H    0.503778  -1.351173  0.713223
H    1.184302  0.166176  0.048655
N    -1.368584  0.028064  2.257471
C    -2.038828  -1.264648  2.325266
C    -1.177748  -2.342675  3.030142
O    0.037038  -2.413253  2.873330
H    -1.577671  0.662522  3.022929
H    -2.927954  -1.072033  2.942360
C    -2.541110  -1.808479  0.977522
H    -3.222238  -2.653953  1.141043
H    -1.718126  -2.164798  0.349588
H    -3.086206  -1.025051  0.436721
N    -1.846761  -3.246052  3.811141
C    -3.257816  -3.276302  4.160669
H    -1.237013  -3.944433  4.224925
H    -3.905975  -3.372264  3.277608
H    -3.568302  -2.387491  4.730549
H    -3.436475  -4.152130  4.793237
