25
Energy: -171263.322759 eV PBE+vdW (tier 2 basis)
N    -0.224831  0.945981  0.416719
C    0.011284  0.431584  1.671070
C    1.506555  -0.031655  1.786111
O    2.103353  -0.467781  0.837853
H    0.317181  0.598446  -0.374354
H    -0.799731  1.768797  0.271418
H    -0.271237  1.127136  2.467868
C    -0.786325  -1.036803  2.014238
C    -2.187183  -0.809157  2.356716
C    -2.580921  -0.602840  3.703173
C    -3.193316  -0.796418  1.342634
C    -3.902582  -0.396631  4.040531
C    -4.518809  -0.589113  1.642534
C    -4.887727  -0.306303  2.996609
O    -6.066803  0.182134  3.341146
H    -0.220028  -1.450411  2.855972
H    -0.630702  -1.633957  1.109720
H    -1.828715  -0.617442  4.492714
H    -2.905103  -0.961335  0.303693
H    -4.208914  -0.170564  5.062038
H    -5.274195  -0.558918  0.855373
H    -6.669284  0.303579  2.579418
O    1.933657  0.132529  3.036799
H    2.876546  -0.136102  3.095552
Cd    -5.324539  -3.222704  3.970579
