25
Energy: -171263.637795 eV PBE+vdW (tier 2 basis)
N    0.181458  -0.511347  0.085581
C    -0.024572  -0.075969  1.423735
C    1.188619  0.841029  1.869226
O    1.577957  1.704280  1.036270
H    -0.439724  -1.247550  -0.240749
H    0.318520  0.222548  -0.607830
H    -0.835226  0.682911  1.514023
C    -0.390549  -1.200487  2.399724
C    0.686535  -2.292982  2.747728
C    0.174788  -3.158977  3.839674
C    1.247640  -3.035106  1.591684
C    0.210189  -4.514518  3.785788
C    1.276868  -4.390778  1.536013
C    0.753992  -5.152590  2.627375
O    0.817176  -6.453290  2.496403
H    -1.282784  -1.703756  1.998455
H    -0.696541  -0.737419  3.345905
H    -0.245371  -2.668186  4.719769
H    1.665608  -2.454398  0.768804
H    -0.170313  -5.121517  4.609249
H    1.698913  -4.930553  0.688710
H    0.458057  -6.940854  3.266530
O    1.651013  0.715829  3.038029
H    1.532410  -1.718684  3.192199
Cd    2.981863  2.555392  2.599311
