25
Energy: -171263.934843 eV PBE+vdW (tier 2 basis)
N    2.029587  -0.459823  0.174592
C    0.861274  -0.374452  0.959824
C    0.569349  1.150866  1.429736
O    1.368612  1.698034  2.229491
H    1.957313  -0.218828  -0.810341
H    2.909598  -0.167739  0.595606
H    -0.007230  -0.624434  0.340246
C    0.929249  -1.234382  2.236456
C    1.109031  -2.757793  1.919685
C    1.724107  -3.494675  3.047869
C    -0.082993  -3.417803  1.334344
C    1.272775  -4.703300  3.472484
C    -0.536680  -4.622632  1.760912
C    0.135870  -5.287724  2.833500
O    -0.356794  -6.449703  3.181189
H    0.026691  -1.085490  2.843474
H    1.783903  -0.900179  2.841036
H    2.593212  -3.046697  3.533293
H    -0.596889  -2.924252  0.508121
H    1.764866  -5.231669  4.290889
H    -1.401965  -5.111221  1.314000
H    0.132346  -6.876755  3.914551
O    -0.443521  1.700527  0.920659
H    1.882392  -2.767439  1.108354
Cd    0.110898  3.629559  1.997031
