25
Energy: -171263.727759 eV PBE+vdW (tier 2 basis)
N    -0.145217  -0.030673  -0.053360
C    -0.095398  -0.005280  1.357133
C    1.242877  0.770801  1.849213
O    2.359369  0.206896  1.722831
H    -0.564442  0.773020  -0.514502
H    0.651058  -0.403360  -0.564378
H    -0.915648  0.620057  1.727040
C    -0.188154  -1.365287  2.084253
C    0.708588  -2.544249  1.569339
C    1.136644  -3.433884  2.679723
C    0.113777  -3.263205  0.412439
C    1.024016  -4.784123  2.633095
C    -0.004359  -4.614063  0.368332
C    0.450999  -5.397437  1.476531
O    0.371384  -6.702652  1.502696
H    -1.240888  -1.675714  2.034071
H    0.029302  -1.193684  3.146714
H    1.575328  -2.962376  3.560837
H    -0.255907  -2.671117  -0.425610
H    1.352275  -5.425813  3.450228
H    -0.450011  -5.111064  -0.495177
H    -0.028115  -7.087067  0.694906
O    1.058163  1.930632  2.300690
H    1.657644  -2.074846  1.210974
Cd    3.289716  2.233489  2.523983
