25
Energy: -171264.747543 eV PBE+vdW (tier 2 basis)
N    0.073427  2.585988  3.428734
C    -0.110190  1.086656  3.297478
C    0.555322  0.631843  1.997267
O    0.980959  -0.563943  1.967481
H    -0.049672  3.011652  2.491128
H    -0.598613  3.009804  4.085459
H    0.348900  0.611325  4.170062
C    -1.646356  0.741026  3.175357
C    -1.908732  -0.442989  2.262102
C    -1.778260  -1.777138  2.726811
C    -2.149098  -0.244501  0.907577
C    -1.839933  -2.869399  1.879542
C    -2.112938  -1.341999  -0.025366
C    -2.025567  -2.683893  0.493403
O    -2.139075  -3.774813  -0.254189
H    -2.168115  1.619350  2.767298
H    -2.040581  0.560622  4.183769
H    -1.625178  -1.959049  3.791598
H    -2.342355  0.754579  0.513589
H    -1.777189  -3.886761  2.264142
H    -2.495500  -1.185916  -1.038865
H    -2.396585  -3.591805  -1.177649
O    0.408957  1.373676  0.985098
H    1.021539  2.827127  3.755378
Cd    0.228833  -0.761445  -0.117204
