25
Energy: -171263.960106 eV PBE+vdW (tier 2 basis)
N    0.481287  -0.559277  1.202191
C    -0.650868  0.324108  1.546584
C    -0.151147  1.670469  2.108334
O    1.042719  1.943512  2.271833
H    0.330355  -1.019962  0.300972
H    0.584148  -1.300195  1.904768
H    -1.170445  0.578474  0.608115
C    -1.697069  -0.388697  2.484623
C    -1.196099  -0.896658  3.807325
C    -0.955081  -0.020596  4.892991
C    -1.016964  -2.285266  4.002391
C    -0.551862  -0.502292  6.120955
C    -0.617336  -2.793960  5.226028
C    -0.383855  -1.901133  6.302695
O    -0.014339  -2.294656  7.516991
H    -2.121592  -1.212772  1.896141
H    -2.529737  0.313953  2.648067
H    -1.119354  1.052378  4.786462
H    -1.237202  -2.980891  3.190735
H    -0.382460  0.158891  6.969760
H    -0.504155  -3.869311  5.369799
H    0.056461  -3.266755  7.593558
O    -1.031879  2.595927  2.416351
H    -1.957904  2.349151  2.224396
Cd    2.559854  0.614819  1.250444
