25
Energy: -171263.930416 eV PBE+vdW (tier 2 basis)
N    -0.980466  1.153216  1.086221
C    -0.418163  0.239962  2.163831
C    1.119253  0.472980  2.049077
O    1.545654  0.948204  1.015585
H    -0.137373  1.284727  0.462684
H    -1.138031  2.078785  1.502511
H    -0.820477  0.582440  3.126685
C    -0.708218  -1.285361  1.971945
C    -2.158202  -1.552585  1.660887
C    -2.549140  -1.810058  0.336050
C    -3.181376  -1.357124  2.617567
C    -3.922462  -1.650327  -0.074017
C    -4.529221  -1.318525  2.276183
C    -4.928477  -1.441517  0.925589
O    -6.181009  -1.419569  0.494287
H    -0.399162  -1.794196  2.895948
H    -0.071249  -1.679131  1.167614
H    -1.812920  -2.113824  -0.414462
H    -2.911598  -1.224231  3.666804
H    -4.238905  -1.920255  -1.083912
H    -5.283641  -1.200584  3.055960
H    -6.834545  -1.316429  1.213564
O    1.917213  0.096871  3.034453
H    1.455984  -0.205586  3.839356
Cd    -2.768471  0.506114  -0.042408
