25
Energy: -171264.431022 eV PBE+vdW (tier 2 basis)
N    -0.539803  -0.208549  -0.180213
C    -0.032509  -0.260612  1.251052
C    1.509412  -0.191782  1.193774
O    2.024625  0.221078  0.108705
H    -1.446260  0.271427  -0.257116
H    0.168438  0.280538  -0.758822
H    -0.345667  0.680616  1.729678
C    -0.630080  -1.450268  2.029653
C    -0.508107  -2.796258  1.364141
C    0.601123  -3.636488  1.615560
C    -1.531928  -3.262425  0.506703
C    0.698178  -4.884956  1.028847
C    -1.450435  -4.502975  -0.100251
C    -0.328862  -5.330150  0.160060
O    -0.327126  -6.521647  -0.433920
H    -1.692322  -1.224010  2.208971
H    -0.134845  -1.447548  3.010351
H    1.375732  -3.311491  2.310400
H    -2.437575  -2.668561  0.361594
H    1.545120  -5.536046  1.249635
H    -2.241752  -4.880135  -0.746662
H    0.450745  -7.060263  -0.190557
O    2.163560  -0.468732  2.235718
H    -0.652330  -1.171624  -0.545609
Cd    4.107431  0.200116  1.199513
