25
Energy: -171263.768623 eV PBE+vdW (tier 2 basis)
N    -1.105356  0.777190  -0.186429
C    -0.493338  0.396218  1.024278
C    1.061168  0.300904  0.838138
O    1.747603  1.266009  1.186389
H    -1.282363  1.762219  -0.357362
H    -1.009462  0.206291  -1.020582
H    -0.643731  1.190866  1.763782
C    -1.048025  -0.947133  1.676435
C    -1.063442  -2.177807  0.839404
C    -0.144966  -3.235868  1.085586
C    -2.051482  -2.362393  -0.168218
C    -0.200716  -4.415099  0.370869
C    -2.129770  -3.535449  -0.886946
C    -1.200380  -4.578853  -0.625497
O    -1.205347  -5.740019  -1.264411
H    -2.075284  -0.667401  1.953634
H    -0.482762  -1.106787  2.604410
H    0.582996  -3.142162  1.893765
H    -2.787677  -1.578586  -0.349544
H    0.478608  -5.242588  0.571624
H    -2.906200  -3.673104  -1.640986
H    -1.931844  -5.812666  -1.915243
O    1.602601  -0.748988  0.260748
H    0.956992  -1.492185  0.143706
Cd    4.051193  1.474015  0.915020
