25
Energy: -171264.803056 eV PBE+vdW (tier 2 basis)
N    -0.638303  2.613280  2.301980
C    -0.203802  1.335662  3.000282
C    0.607217  0.523987  1.986817
O    1.320017  -0.418179  2.422683
H    -1.467893  3.041712  2.735743
H    0.114606  3.317870  2.308225
H    0.385175  1.619411  3.878520
C    -1.428365  0.441150  3.430957
C    -1.844327  -0.573586  2.381742
C    -1.247397  -1.832788  2.359511
C    -2.727768  -0.251453  1.324128
C    -1.365609  -2.692377  1.217558
C    -2.958046  -1.098352  0.248717
C    -2.275950  -2.327425  0.163950
O    -2.440135  -3.222266  -0.802910
H    -2.265525  1.094288  3.720054
H    -1.115488  -0.075943  4.346372
H    -0.648579  -2.175681  3.205154
H    -3.271584  0.695256  1.349068
H    -1.064277  -3.741885  1.285471
H    -3.678849  -0.820772  -0.521426
H    -3.104060  -2.946638  -1.464137
O    0.302289  0.689112  0.759364
H    -0.827574  2.380838  1.308192
Cd    0.675224  -1.588222  0.557988
