25
Energy: -171264.008368 eV PBE+vdW (tier 2 basis)
N    0.118926  0.301283  0.208153
C    0.221626  -0.050018  1.645125
C    1.639463  -0.540730  1.990016
O    2.415095  -1.018314  1.150089
H    -0.850349  0.160231  -0.107991
H    0.346374  1.288146  0.047636
H    0.006006  0.840423  2.256360
C    -0.800699  -1.172449  1.990635
C    -2.225929  -0.786776  1.665095
C    -2.909699  0.172800  2.447591
C    -2.917657  -1.426592  0.611611
C    -4.227835  0.487978  2.193349
C    -4.242834  -1.130474  0.339260
C    -4.912588  -0.167812  1.133851
O    -6.185152  0.173798  0.961893
H    -0.708281  -1.410761  3.060685
H    -0.524584  -2.088213  1.445182
H    -2.407408  0.659204  3.285193
H    -2.421295  -2.203204  0.027521
H    -4.771301  1.215556  2.794796
H    -4.773485  -1.646827  -0.461557
H    -6.614286  -0.319321  0.234969
O    2.034340  -0.521371  3.239058
H    1.401875  -0.102263  3.856077
Cd    1.730677  -0.969294  -0.984595
