25
Energy: -171264.419067 eV PBE+vdW (tier 2 basis)
N    -1.363855  0.921500  1.548339
C    -0.488939  -0.094345  2.232180
C    0.649496  -0.519480  1.309143
O    1.679007  -1.011154  1.642966
H    -0.837335  1.789488  1.394524
H    -2.143919  1.175870  2.165597
H    -0.018652  0.357352  3.118707
C    -1.293894  -1.354155  2.704669
C    -1.845600  -2.137154  1.537076
C    -1.099971  -3.160537  0.909463
C    -3.044745  -1.745591  0.916912
C    -1.455585  -3.698231  -0.323747
C    -3.367953  -2.180740  -0.415815
C    -2.565840  -3.193916  -1.029111
O    -2.972618  -3.614949  -2.221382
H    -2.090027  -1.013896  3.383098
H    -0.607160  -1.963199  3.306434
H    -0.206881  -3.545602  1.405180
H    -3.765253  -1.112057  1.443395
H    -0.868555  -4.515505  -0.746179
H    -4.339213  -1.949003  -0.858329
H    -2.429462  -4.347176  -2.571683
O    0.329366  -0.321260  -0.060375
H    1.094086  -0.627006  -0.596270
Cd    -1.994501  -0.094252  -0.414792
