25
Energy: -171264.827187 eV PBE+vdW (tier 2 basis)
N    1.074949  -0.228336  0.121131
C    0.380908  0.066356  1.406524
C    1.461829  0.152841  2.496267
O    2.502807  -0.521497  2.440013
H    1.581847  0.599437  -0.212139
H    0.392075  -0.457079  -0.608315
H    -0.156260  1.025439  1.337163
C    -0.662468  -1.057426  1.773449
C    -0.003072  -2.392273  2.031151
C    0.387687  -2.785647  3.330194
C    0.420682  -3.199629  0.960889
C    1.240559  -3.858633  3.564383
C    1.403099  -4.225667  1.154051
C    1.797510  -4.571827  2.485128
O    2.644960  -5.588502  2.595264
H    -1.385937  -1.109352  0.946186
H    -1.226011  -0.720433  2.653387
H    0.019178  -2.224144  4.190452
H    0.007273  -3.064529  -0.042363
H    1.487251  -4.140481  4.589050
H    1.670239  -4.903251  0.340542
H    2.848358  -5.813376  3.523547
O    1.269915  0.898520  3.554946
H    0.470054  1.460595  3.507775
Cd    2.485876  -2.001236  0.754156
