25
Energy: -171265.012286 eV PBE+vdW (tier 2 basis)
N    1.494257  -1.818655  1.360650
C    0.325436  -0.918993  1.129482
C    0.801972  0.520145  1.344136
O    1.749744  0.826726  2.087443
H    1.189769  -2.794929  1.419374
H    2.149290  -1.767065  0.572465
H    -0.023865  -0.990874  0.089261
C    -0.878138  -1.279230  2.086818
C    -0.385628  -1.737225  3.439772
C    0.174488  -0.832424  4.353573
C    -0.268041  -3.114250  3.736363
C    1.040707  -1.286375  5.399627
C    0.461816  -3.591694  4.819517
C    1.159502  -2.692730  5.651582
O    1.895561  -3.035886  6.701362
H    -1.456141  -2.075194  1.600643
H    -1.542268  -0.406692  2.150145
H    -0.013174  0.240795  4.269721
H    -0.765681  -3.839527  3.089073
H    1.409689  -0.593719  6.159437
H    0.492826  -4.662623  5.026166
H    1.903258  -3.999350  6.861683
O    0.089512  1.393245  0.681427
H    0.392226  2.314264  0.848442
Cd    2.386880  -0.969740  3.338837
