25
Energy: -171263.965735 eV PBE+vdW (tier 2 basis)
N    1.009812  -0.063948  0.516767
C    0.185414  0.052860  1.734883
C    1.059615  0.382305  2.961341
O    2.286622  0.514831  2.910218
H    0.550854  0.377280  -0.284516
H    1.155634  -1.050850  0.274550
H    -0.475924  0.925348  1.605404
C    -0.737632  -1.208449  1.956025
C    -0.048593  -2.533194  2.110850
C    0.463107  -2.954354  3.362367
C    0.054913  -3.408135  1.006037
C    1.052507  -4.194414  3.514284
C    0.647845  -4.650668  1.130036
C    1.149851  -5.059019  2.394668
O    1.687480  -6.273151  2.446505
H    -1.424394  -1.232354  1.099379
H    -1.370080  -1.008413  2.834810
H    0.369451  -2.313080  4.239580
H    -0.382135  -3.128747  0.045284
H    1.422510  -4.516237  4.488610
H    0.716223  -5.342254  0.291277
H    1.989464  -6.513995  3.344675
O    0.478654  0.552039  4.128115
H    -0.496223  0.488335  4.102215
Cd    3.213707  0.786250  0.859947
