25
Energy: -171264.437532 eV PBE+vdW (tier 2 basis)
N    -0.212834  -0.312222  -0.304415
C    -0.084203  0.072209  1.159918
C    1.369926  0.540070  1.385363
O    1.773649  0.692963  2.570685
H    0.510100  0.203460  -0.840596
H    -1.145661  -0.104269  -0.684218
H    -0.702880  0.971383  1.306219
C    -0.587927  -1.050824  2.090141
C    -0.026004  -2.422416  1.817633
C    1.192648  -2.840857  2.400165
C    -0.738049  -3.334628  1.004589
C    1.691920  -4.107586  2.172275
C    -0.255024  -4.610490  0.760460
C    0.970579  -5.008392  1.346839
O    1.504189  -6.218013  1.189278
H    -1.684899  -1.078291  2.009697
H    -0.352226  -0.723684  3.112597
H    1.728740  -2.168692  3.070435
H    -1.715552  -3.059461  0.602248
H    2.616401  -4.452149  2.633640
H    -0.824588  -5.311173  0.148608
H    0.946279  -6.805288  0.642939
O    2.052329  0.818076  0.351178
H    -0.038288  -1.327799  -0.412087
Cd    3.742374  1.590076  1.797407
