25
Energy: -171265.051739 eV PBE+vdW (tier 2 basis)
N    -0.305800  0.908828  2.640262
C    0.105445  -0.377969  2.006431
C    -0.364088  -0.327003  0.551138
O    -1.387978  0.280316  0.187413
H    -0.161127  0.866825  3.654161
H    0.281970  1.679093  2.301871
H    1.199288  -0.488546  2.015405
C    -0.521569  -1.618868  2.743873
C    -2.028817  -1.646205  2.643242
C    -2.818743  -0.810348  3.453438
C    -2.689395  -2.356572  1.617287
C    -4.173387  -0.502011  3.099507
C    -4.037867  -2.176368  1.326989
C    -4.794245  -1.218230  2.029052
O    -6.076002  -0.943954  1.810510
H    -0.180097  -1.580851  3.789052
H    -0.076910  -2.520881  2.304562
H    -2.418103  -0.384084  4.377401
H    -2.123751  -3.074995  1.021255
H    -4.807335  0.080502  3.771117
H    -4.508859  -2.776113  0.546727
H    -6.465795  -1.494338  1.104494
O    0.392483  -1.013060  -0.263875
H    0.057254  -0.979484  -1.188249
Cd    -2.544574  1.051313  1.976938
