25
Energy: -171264.072253 eV PBE+vdW (tier 2 basis)
N    -0.446194  0.070176  0.037446
C    0.099649  -0.332690  1.286738
C    1.640645  -0.483588  1.331203
O    2.376814  -0.319372  2.340770
H    -0.466086  -0.630121  -0.700177
H    -0.156737  0.979534  -0.313088
H    -0.113104  0.464834  2.024703
C    -0.607468  -1.645084  1.772263
C    -0.192552  -2.081445  3.154060
C    -0.498648  -1.296843  4.271068
C    0.605496  -3.232267  3.362444
C    0.117615  -1.548869  5.549032
C    1.134562  -3.573031  4.603171
C    0.903894  -2.745267  5.723205
O    1.314715  -2.992907  6.957569
H    -0.418460  -2.446148  1.044732
H    -1.682118  -1.419040  1.730272
H    -1.203935  -0.464651  4.197177
H    0.815945  -3.888086  2.515972
H    -0.219479  -1.019990  6.444088
H    1.710206  -4.493202  4.716259
H    1.806529  -3.834051  7.036901
O    2.181647  -0.771309  0.180193
H    3.162371  -0.826624  0.235596
Cd    1.744694  -0.252962  4.417402
