37
Energy: -175315.133437 eV PBE+vdW (tier 2 basis)
C    -0.942180  -0.063225  0.308159
C    -0.536573  -0.336163  1.717588
O    0.132696  -1.410916  1.923829
H    -1.502665  -0.932746  -0.067749
H    -0.043112  0.020377  -0.319280
H    -1.557911  0.835880  0.196851
N    -0.902985  0.540132  2.667101
C    -0.934441  0.473532  4.158031
C    0.451197  0.722992  4.798577
O    1.368705  -0.177611  4.869981
H    -1.392825  1.350388  2.292328
H    -1.550400  1.343864  4.422781
C    -1.679396  -0.768134  4.706857
C    -2.187174  -0.581376  6.150526
C    -3.120633  -1.728080  6.584924
N    -3.604984  -1.523962  7.951514
C    -4.788703  -1.954741  8.444710
N    -5.195162  -1.514196  9.638654
N    -5.562176  -2.788462  7.740614
H    -1.056687  -1.675736  4.642440
H    -2.530430  -0.941620  4.032023
H    -2.741314  0.366874  6.226842
H    -1.336237  -0.515649  6.847682
H    -2.599495  -2.696738  6.501080
H    -3.994538  -1.757000  5.918664
H    -2.940048  -1.179369  8.637900
H    -4.782902  -0.699039  10.078633
H    -5.951662  -1.969598  10.139601
H    -6.515772  -2.978647  8.033432
H    -5.178309  -3.404772  7.034590
N    0.668627  1.905428  5.337649
C    1.909324  2.350310  5.985505
H    -0.092514  2.583035  5.313803
H    2.225124  3.295513  5.527276
H    2.684277  1.591658  5.862639
H    1.720547  2.519621  7.053305
Cd    1.531731  -1.726830  3.450940
