37
Energy: -175313.326809 eV PBE+vdW (tier 2 basis)
C    -1.571243  0.844429  -0.352416
C    -1.781499  0.420098  1.078957
O    -1.471528  1.135493  2.025575
H    -1.702684  1.928599  -0.428214
H    -2.246012  0.334525  -1.050636
H    -0.532338  0.612059  -0.634229
N    -2.334999  -0.856965  1.237081
C    -2.325974  -1.721724  2.414976
C    -3.715174  -2.455738  2.517358
O    -3.697397  -3.541810  3.178893
H    -2.323825  -1.376876  0.358528
H    -1.616387  -2.544255  2.234888
C    -1.933899  -1.077242  3.761783
C    -2.906783  -0.056653  4.379833
C    -2.270876  0.823790  5.464954
N    -1.343671  1.800865  4.895931
C    -0.686263  2.754104  5.595045
N    0.082090  3.623783  4.925513
N    -0.795122  2.827811  6.920671
H    -0.945015  -0.625766  3.593293
H    -1.766569  -1.904924  4.465005
H    -3.746962  -0.578923  4.859361
H    -3.342191  0.600157  3.613360
H    -1.739064  0.195622  6.202052
H    -3.071747  1.356570  6.005697
H    -1.242797  1.797870  3.878201
H    0.606468  4.351013  5.403416
H    0.153385  3.604716  3.914050
H    -1.354609  2.174269  7.454376
H    -0.315522  3.547686  7.452708
N    -4.763486  -1.914924  1.930656
C    -6.123887  -2.450264  1.916178
H    -4.577823  -1.047060  1.425295
H    -6.779356  -1.721912  1.426918
H    -6.501597  -2.596172  2.938738
H    -6.177896  -3.379980  1.329644
Cd    -5.038206  -5.232145  3.538381
