37
Energy: -175314.116107 eV PBE+vdW (tier 2 basis)
C    -0.392115  -0.402137  -0.924056
C    -0.088102  -0.239441  0.517159
O    1.117407  -0.414030  0.919614
H    0.175323  0.322731  -1.526195
H    -1.460672  -0.346992  -1.149818
H    -0.013473  -1.393122  -1.228444
N    -1.046731  0.050018  1.436825
C    -2.023960  1.142689  1.360432
C    -1.258727  2.456458  1.694976
O    -0.155615  2.436166  2.369178
H    -0.780193  -0.182276  2.396739
H    -2.405234  1.199328  0.331506
C    -3.171500  0.913035  2.376956
C    -4.063298  -0.327336  2.133329
C    -5.339191  -0.037545  1.316406
N    -6.194047  -1.213711  1.139488
C    -7.398158  -1.435730  1.712257
N    -7.765278  -0.782278  2.821395
N    -8.232768  -2.316702  1.154964
H    -3.787041  1.823268  2.414522
H    -2.713545  0.839790  3.375608
H    -4.354971  -0.729396  3.113473
H    -3.485777  -1.130096  1.649797
H    -5.090265  0.338073  0.311933
H    -5.937147  0.749248  1.796456
H    -5.919966  -1.881429  0.425115
H    -7.087107  -0.381486  3.456209
H    -8.725336  -0.819863  3.149185
H    -9.029734  -2.684902  1.665127
H    -8.129846  -2.620225  0.192547
N    -1.744731  3.633605  1.359261
C    -3.006658  3.977388  0.697886
H    -1.168689  4.427045  1.656642
H    -3.723264  4.363428  1.435095
H    -3.432275  3.112511  0.182385
H    -2.805620  4.764365  -0.038397
Cd    1.581749  1.183556  2.286263
