37
Energy: -175314.279676 eV PBE+vdW (tier 2 basis)
C    0.894518  0.713755  0.409112
C    0.369608  -0.428371  1.213902
O    1.196196  -1.369562  1.478665
H    1.717418  1.194017  0.958273
H    0.132606  1.460475  0.160454
H    1.330839  0.317817  -0.519927
N    -0.920524  -0.397171  1.591558
C    -1.825078  -1.420100  2.187100
C    -1.543962  -1.639724  3.692785
O    -0.633573  -2.445644  4.120472
H    -1.397409  0.455861  1.307265
H    -2.810495  -0.941364  2.130957
C    -1.905348  -2.736379  1.377639
C    -3.109586  -3.632656  1.748227
C    -4.437082  -3.335824  1.013552
N    -4.522138  -3.868589  -0.350798
C    -4.931690  -5.113845  -0.694937
N    -4.938052  -5.464844  -1.982942
N    -5.288345  -6.002086  0.239490
H    -0.979999  -3.322103  1.494824
H    -1.932199  -2.464518  0.312308
H    -3.304750  -3.580135  2.830864
H    -2.834705  -4.679142  1.560296
H    -4.622397  -2.256398  0.929231
H    -5.277096  -3.712731  1.614996
H    -4.503598  -3.194222  -1.108068
H    -5.376379  -6.325591  -2.295492
H    -4.554756  -4.867613  -2.707015
H    -5.555524  -6.946084  -0.022430
H    -5.545271  -5.715039  1.175733
N    -2.285987  -1.033751  4.598510
C    -3.428836  -0.123459  4.422951
H    -2.027283  -1.251981  5.565136
H    -3.186536  0.688021  3.727902
H    -3.647747  0.322692  5.397785
H    -4.320904  -0.668274  4.088838
Cd    1.182068  -2.724438  3.083783
