37
Energy: -175313.797122 eV PBE+vdW (tier 2 basis)
C    -1.425607  1.848906  -0.892555
C    -0.799663  0.846907  0.024416
O    0.335778  0.300070  -0.220101
H    -2.409171  2.196460  -0.557478
H    -1.544240  1.410164  -1.895124
H    -0.768741  2.729625  -0.969692
N    -1.448554  0.508058  1.144015
C    -0.946384  -0.345176  2.235362
C    -1.506511  -1.793585  2.209050
O    -1.019685  -2.608437  3.005305
H    -2.308155  1.026965  1.324951
H    0.135742  -0.457645  2.081409
C    -1.208479  0.376425  3.582954
C    -0.579633  -0.242965  4.850074
C    -1.566202  -1.108198  5.681975
N    -0.939908  -1.741030  6.832769
C    -0.330213  -2.953141  6.844337
N    -0.175743  -3.637308  5.711409
N    0.106329  -3.437049  8.011939
H    -2.294244  0.512934  3.719636
H    -0.789995  1.386730  3.467936
H    -0.241674  0.576566  5.498474
H    0.317320  -0.822979  4.594914
H    -2.027076  -1.889744  5.062387
H    -2.375195  -0.476763  6.070973
H    -0.962310  -1.232154  7.713870
H    0.191814  -4.583113  5.726656
H    -0.433553  -3.255578  4.800766
H    -0.111693  -2.988376  8.896301
H    0.614910  -4.314472  8.068468
N    -2.487907  -2.112852  1.347786
C    -3.116121  -3.429853  1.296871
H    -2.886252  -1.378926  0.769100
H    -3.459421  -3.619180  0.274086
H    -3.985547  -3.478513  1.969941
H    -2.388416  -4.187815  1.604459
Cd    1.653495  0.679011  -1.914156
