37
Energy: -175315.044605 eV PBE+vdW (tier 2 basis)
C    1.011269  -1.490924  2.232501
C    0.613440  -0.053372  2.172014
O    1.561907  0.805424  2.221195
H    1.641517  -1.645483  3.120771
H    1.641430  -1.726739  1.362225
H    0.160211  -2.179825  2.266781
N    -0.695923  0.238714  2.080462
C    -1.462656  1.509648  2.212389
C    -1.362508  2.409518  0.957299
O    -0.345964  3.156310  0.701665
H    -1.282017  -0.588102  1.990394
H    -2.506181  1.168261  2.252795
C    -1.178952  2.290287  3.519221
C    -1.626092  1.590248  4.827466
C    -3.017389  2.030350  5.323675
N    -3.346812  1.378051  6.592444
C    -4.037274  1.923927  7.619325
N    -4.023741  1.316163  8.808611
N    -4.708427  3.070502  7.462022
H    -1.666915  3.272533  3.426019
H    -0.103365  2.504381  3.604734
H    -0.895428  1.823768  5.612926
H    -1.596680  0.495994  4.703319
H    -3.795219  1.816220  4.570781
H    -3.009375  3.115574  5.496624
H    -3.122437  0.391787  6.685631
H    -3.330479  0.615149  9.045757
H    -4.697252  1.553604  9.530280
H    -5.083924  3.561990  8.267409
H    -5.046407  3.370271  6.555800
N    -2.402681  2.451954  0.149781
C    -2.515310  3.260304  -1.072466
H    -3.221247  1.898795  0.398710
H    -2.954903  2.638744  -1.860790
H    -1.527661  3.614550  -1.374655
H    -3.173433  4.118966  -0.883700
Cd    1.594874  2.742454  1.400583
