37
Energy: -175315.199273 eV PBE+vdW (tier 2 basis)
C    -2.319447  2.660343  4.218481
C    -2.098060  1.432151  3.403216
O    -2.107733  1.566167  2.129797
H    -2.247645  2.484163  5.297193
H    -3.304782  3.084021  3.976527
H    -1.577262  3.416919  3.922323
N    -1.883568  0.265617  4.036568
C    -1.397309  -1.017265  3.485340
C    -2.583360  -1.882419  2.980397
O    -3.098412  -1.669646  1.818496
H    -1.966073  0.306095  5.051139
H    -0.803676  -0.782519  2.585608
C    -0.463194  -1.722040  4.494321
C    0.888648  -1.016373  4.728505
C    1.747566  -1.782928  5.756783
N    3.005083  -1.098181  6.074024
C    4.246897  -1.636945  6.066499
N    4.548311  -2.670408  5.272098
N    5.187242  -1.115631  6.858315
H    -0.276350  -2.736433  4.110522
H    -0.986220  -1.841267  5.459992
H    0.727862  0.010153  5.092581
H    1.438046  -0.930017  3.779070
H    1.981136  -2.792417  5.396084
H    1.183258  -1.916188  6.693632
H    2.922087  -0.227708  6.592112
H    5.419984  -3.176973  5.389276
H    4.004407  -2.888260  4.447481
H    4.955626  -0.541865  7.662188
H    6.171801  -1.317333  6.712858
N    -3.066732  -2.846807  3.730285
C    -4.190722  -3.732334  3.388423
H    -2.621115  -3.012364  4.631012
H    -4.488481  -3.567987  2.351404
H    -5.032716  -3.521032  4.059996
H    -3.873958  -4.772533  3.527042
Cd    -2.745136  0.109243  0.739412
