37
Energy: -175314.861028 eV PBE+vdW (tier 2 basis)
C    2.469222  -0.064992  1.939458
C    1.175581  -0.364914  2.615984
O    0.756697  0.481380  3.480097
H    2.386702  0.918095  1.450756
H    2.753620  -0.815156  1.193727
H    3.262907  0.031396  2.693680
N    0.509806  -1.483648  2.274292
C    -0.891765  -1.848824  2.563368
C    -0.995991  -2.654942  3.883042
O    -0.825263  -2.071419  5.017418
H    1.001654  -2.089159  1.621005
H    -1.422150  -0.907312  2.786312
C    -1.603629  -2.426017  1.307297
C    -0.891376  -3.524437  0.489575
C    -1.773121  -4.210912  -0.573786
N    -2.101659  -3.335423  -1.705351
C    -3.088464  -3.589322  -2.603295
N    -3.340734  -2.693012  -3.560679
N    -3.827454  -4.698569  -2.513281
H    -1.810899  -1.568499  0.652139
H    -2.592750  -2.778499  1.638710
H    -0.513674  -4.339829  1.127014
H    0.004514  -3.122833  -0.012994
H    -2.717518  -4.538335  -0.114640
H    -1.238314  -5.108948  -0.923498
H    -1.354932  -2.738248  -2.051102
H    -3.925421  -2.922564  -4.358430
H    -2.968200  -1.751008  -3.526316
H    -3.490997  -5.530381  -2.042710
H    -4.656007  -4.816292  -3.089152
N    -1.281797  -3.938032  3.885242
C    -1.422266  -4.762001  5.098518
H    -1.403853  -4.400906  2.989316
H    -1.919691  -5.695546  4.823504
H    -2.021404  -4.226109  5.842038
H    -0.433270  -4.983418  5.519661
Cd    -0.332698  -0.022229  5.218021
