37
Energy: -175314.448587 eV PBE+vdW (tier 2 basis)
C    -1.677324  1.019722  0.744842
C    -1.057705  0.309471  1.901845
O    -0.571809  -0.852635  1.667649
H    -0.916649  1.173644  -0.034290
H    -2.130816  1.980068  1.013063
H    -2.445313  0.367171  0.303226
N    -1.059711  0.922218  3.098150
C    -0.764720  0.448727  4.481236
C    0.757193  0.354769  4.759352
O    1.481039  -0.637402  4.377633
H    -1.449610  1.861959  3.063351
H    -1.134173  1.274110  5.105666
C    -1.550062  -0.821212  4.889422
C    -1.598014  -1.070464  6.414039
C    -2.718381  -0.342689  7.192446
N    -4.043191  -0.966423  7.098275
C    -4.513966  -1.957393  7.894283
N    -5.739769  -2.439699  7.677649
N    -3.752731  -2.480961  8.861465
H    -1.124353  -1.713125  4.401653
H    -2.564559  -0.731980  4.474323
H    -0.635417  -0.797249  6.874026
H    -1.699825  -2.150377  6.586069
H    -2.846542  0.692894  6.849274
H    -2.423771  -0.246869  8.247655
H    -4.748386  -0.465915  6.568217
H    -6.295041  -2.161449  6.876369
H    -6.186346  -3.068376  8.337955
H    -4.094722  -3.252091  9.426792
H    -2.945673  -1.990874  9.226540
N    1.312879  1.324125  5.458227
C    2.733951  1.432133  5.816393
H    0.708823  2.074767  5.790199
H    3.298147  0.630079  5.337351
H    2.838927  1.360848  6.906480
H    3.106375  2.409851  5.486815
Cd    1.000244  -1.800372  2.685360
