37
Energy: -175314.042426 eV PBE+vdW (tier 2 basis)
C    -1.266625  1.514148  1.485062
C    -0.836263  0.388183  2.350308
O    0.282543  0.519327  2.970398
H    -2.341021  1.531375  1.297073
H    -0.709135  1.495834  0.534888
H    -0.963029  2.446341  1.985908
N    -1.568413  -0.732715  2.585141
C    -2.192603  -1.689422  1.648028
C    -1.051258  -2.632345  1.165493
O    0.181370  -2.253601  1.185372
H    -1.290274  -1.185257  3.459240
H    -2.866791  -2.294016  2.274884
C    -3.034445  -1.090214  0.496254
C    -4.333151  -0.432651  1.005264
C    -5.175347  0.310532  -0.046217
N    -5.977188  -0.593354  -0.883718
C    -6.630501  -0.204743  -2.008163
N    -7.327151  -1.108800  -2.702688
N    -6.548356  1.054616  -2.446578
H    -3.273287  -1.908321  -0.197126
H    -2.429129  -0.384476  -0.089328
H    -4.097535  0.303011  1.787607
H    -4.959881  -1.184455  1.512465
H    -4.521935  0.898394  -0.708115
H    -5.833524  1.014108  0.489168
H    -6.388489  -1.392549  -0.408005
H    -7.974358  -0.829994  -3.433334
H    -7.250775  -2.102281  -2.518844
H    -6.920223  1.311904  -3.355934
H    -6.306587  1.820946  -1.829980
N    -1.317057  -3.839219  0.705811
C    -2.601626  -4.518589  0.520418
H    -0.488868  -4.367448  0.416114
H    -2.476025  -5.568970  0.807405
H    -2.902189  -4.480258  -0.535089
H    -3.378233  -4.074441  1.149597
Cd    1.451266  -1.238408  2.589370
