37
Energy: -175314.327725 eV PBE+vdW (tier 2 basis)
C    0.852480  0.719335  0.531851
C    0.381324  -0.416508  1.377818
O    1.266604  -1.270557  1.732989
H    0.047219  1.388411  0.209296
H    1.360138  0.310168  -0.354387
H    1.609772  1.292413  1.086367
N    -0.924065  -0.471121  1.695604
C    -1.772222  -1.530998  2.307921
C    -1.536994  -1.661272  3.831817
O    -0.592322  -2.381850  4.331576
H    -1.453920  0.320642  1.337469
H    -2.788574  -1.134870  2.191425
C    -1.720000  -2.884285  1.559301
C    -2.844825  -3.871037  1.961931
C    -4.158883  -3.802373  1.156268
N    -4.106347  -4.579124  -0.086841
C    -5.135823  -5.272488  -0.626137
N    -4.887885  -6.168049  -1.586628
N    -6.387738  -5.084087  -0.196896
H    -0.746501  -3.374913  1.712306
H    -1.753319  -2.650803  0.484902
H    -3.102433  -3.732242  3.022963
H    -2.458964  -4.897692  1.903273
H    -4.441784  -2.756894  0.942207
H    -4.956213  -4.235445  1.774203
H    -3.256132  -4.551399  -0.640323
H    -5.635385  -6.542639  -2.162695
H    -3.961889  -6.552520  -1.736692
H    -7.128658  -5.724520  -0.465791
H    -6.677146  -4.225501  0.255481
N    -2.356083  -1.069395  4.678298
C    -3.549524  -0.249878  4.413758
H    -2.123294  -1.224083  5.663550
H    -4.374890  -0.864145  4.032324
H    -3.321978  0.567938  3.720866
H    -3.864136  0.190700  5.364526
Cd    1.293390  -2.545919  3.402102
