37
Energy: -175313.675509 eV PBE+vdW (tier 2 basis)
C    0.068223  0.381933  0.446006
C    -0.368198  0.215216  1.860217
O    0.306722  0.677779  2.849904
H    -0.507916  -0.213836  -0.266831
H    1.124289  0.085485  0.358488
H    0.003410  1.443748  0.164053
N    -1.497291  -0.424961  2.212475
C    -2.717702  -0.747232  1.433426
C    -2.602886  -2.044460  0.568929
O    -3.561718  -2.324413  -0.158969
H    -1.609544  -0.489209  3.227640
H    -3.445349  -1.027084  2.210608
C    -3.275694  0.493789  0.678711
C    -4.577039  0.352115  -0.127644
C    -5.815803  -0.119347  0.666319
N    -7.015367  -0.201135  -0.159790
C    -7.429676  -1.290338  -0.849606
N    -8.642746  -1.269677  -1.413307
N    -6.643536  -2.362787  -0.956769
H    -2.520513  0.870582  -0.023328
H    -3.401194  1.273188  1.446181
H    -4.417902  -0.312139  -0.987123
H    -4.787098  1.346768  -0.549731
H    -6.041526  0.585174  1.478908
H    -5.655868  -1.105234  1.124608
H    -7.584477  0.637895  -0.243498
H    -8.949386  -2.006000  -2.042432
H    -9.330834  -0.559748  -1.181353
H    -6.998936  -3.226128  -1.354420
H    -5.658549  -2.342683  -0.702750
N    -1.518567  -2.824316  0.691073
C    -1.393490  -4.121256  0.020869
H    -0.865067  -2.614156  1.440040
H    -1.900546  -4.910580  0.593819
H    -0.331045  -4.370602  -0.063652
H    -1.845992  -4.058475  -0.974164
Cd    2.365207  1.312588  3.150636
