37
Energy: -175313.918202 eV PBE+vdW (tier 2 basis)
C    0.400234  0.272826  0.914094
C    -0.109878  0.147024  2.304679
O    0.601413  0.468449  3.330103
H    -0.265899  -0.158855  0.162728
H    1.370353  -0.242668  0.843319
H    0.581749  1.334106  0.688456
N    -1.346067  -0.270478  2.614916
C    -2.570807  -0.442275  1.795122
C    -2.408766  -1.732862  0.911087
O    -1.978758  -1.637820  -0.234124
H    -1.491298  -0.351186  3.624280
H    -3.356033  -0.630680  2.540794
C    -2.974945  0.784782  0.958189
C    -4.414429  0.681032  0.418666
C    -4.824726  1.957781  -0.346008
N    -6.240252  1.973458  -0.721675
C    -6.762705  2.019250  -1.967899
N    -8.023643  2.434938  -2.124654
N    -6.043288  1.652903  -3.033353
H    -2.272487  0.907956  0.122818
H    -2.885122  1.669951  1.605703
H    -5.113535  0.531891  1.256533
H    -4.518501  -0.190058  -0.244877
H    -4.218348  2.096094  -1.250030
H    -4.646312  2.843775  0.283400
H    -6.906431  2.102266  0.036040
H    -8.521823  2.295801  -2.998620
H    -8.507039  2.964749  -1.406596
H    -5.212662  1.081627  -2.947843
H    -6.372172  1.843125  -3.974507
N    -2.756225  -2.901028  1.497306
C    -2.744201  -4.173219  0.786481
H    -3.208592  -2.876503  2.408824
H    -2.554371  -4.976741  1.507846
H    -1.970736  -4.143852  0.011215
H    -3.714429  -4.368831  0.302853
Cd    2.727679  0.441885  3.736384
