37
Energy: -175313.852250 eV PBE+vdW (tier 2 basis)
C    -0.272178  2.091100  1.761925
C    -0.164404  1.279253  0.517513
O    0.745177  1.499058  -0.370624
H    -0.160972  3.157127  1.519884
H    0.538254  1.796111  2.446402
H    -1.222488  1.964309  2.288604
N    -1.000923  0.280019  0.237735
C    -1.944068  -0.390155  1.148572
C    -1.129616  -1.042909  2.309884
O    0.093480  -1.126141  2.220514
H    -0.753911  -0.238732  -0.606852
H    -2.632423  0.364965  1.556484
C    -2.739372  -1.465638  0.366126
C    -3.781409  -0.895517  -0.612727
C    -4.377023  -1.930614  -1.594042
N    -5.278388  -2.931339  -1.012673
C    -6.616700  -3.005224  -1.206914
N    -7.238392  -4.173087  -1.013834
N    -7.318677  -1.929275  -1.571891
H    -3.228476  -2.121518  1.099856
H    -2.012754  -2.105577  -0.162497
H    -3.323950  -0.117141  -1.242770
H    -4.589644  -0.399710  -0.053300
H    -3.566950  -2.478094  -2.097821
H    -4.921184  -1.402013  -2.387225
H    -4.851152  -3.769876  -0.630737
H    -8.251406  -4.231250  -0.972116
H    -6.735794  -5.054494  -1.017273
H    -8.279140  -2.014401  -1.889298
H    -6.942936  -0.992120  -1.507588
N    -1.781490  -1.524909  3.403947
C    -3.121669  -1.242520  3.886948
H    -1.144355  -1.971265  4.069794
H    -3.090048  -0.536435  4.732387
H    -3.568407  -2.175225  4.262392
H    -3.758678  -0.831118  3.099852
Cd    2.354091  2.905546  -0.457551
