37
Energy: -175313.644841 eV PBE+vdW (tier 2 basis)
C    1.369527  1.406560  1.316427
C    0.785858  0.275318  0.543590
O    1.496166  -0.509073  -0.188635
H    0.695349  1.816265  2.073929
H    1.659732  2.211032  0.622623
H    2.283791  1.069783  1.825715
N    -0.529049  0.023369  0.519951
C    -1.634233  0.890773  0.952267
C    -2.208418  0.567398  2.369533
O    -2.521915  1.576928  3.029579
H    -0.783279  -0.797301  -0.036246
H    -1.236027  1.904363  1.064700
C    -2.752918  0.885829  -0.125386
C    -4.103415  1.548718  0.206144
C    -4.174370  3.084104  0.337260
N    -4.039013  3.544613  1.716193
C    -4.553490  4.692441  2.216144
N    -4.524664  4.873720  3.543356
N    -5.079671  5.619044  1.415303
H    -2.974938  -0.160306  -0.387618
H    -2.326349  1.344680  -1.030722
H    -4.577456  1.081963  1.082125
H    -4.760243  1.291049  -0.637066
H    -5.155115  3.416520  -0.034982
H    -3.414089  3.566218  -0.305118
H    -3.511569  2.932389  2.357519
H    -4.797192  5.756417  3.966136
H    -4.320782  4.107859  4.176821
H    -4.949616  5.601594  0.410689
H    -5.581901  6.418149  1.791092
N    -2.402349  -0.672283  2.818262
C    -2.208052  -1.962998  2.152071
H    -2.796200  -0.703954  3.759605
H    -2.790820  -2.711057  2.698680
H    -1.156385  -2.274973  2.170949
H    -2.590585  -1.950034  1.124604
Cd    3.588695  -1.062574  -0.200720
