37
Energy: -175314.194673 eV PBE+vdW (tier 2 basis)
C    0.253847  0.165693  0.137065
C    0.044600  0.025440  1.597077
O    1.054875  -0.222577  2.348697
H    0.928795  1.006548  -0.081028
H    -0.678911  0.254124  -0.427050
H    0.792409  -0.735206  -0.204174
N    -1.186541  0.109839  2.168006
C    -2.157630  1.192202  1.972962
C    -1.686790  2.384042  2.858107
O    -0.885875  2.203403  3.857509
H    -1.238510  -0.312483  3.097940
H    -2.120011  1.502885  0.919050
C    -3.588945  0.736655  2.345946
C    -4.185847  -0.305018  1.381815
C    -5.624007  -0.683532  1.781425
N    -6.201370  -1.632187  0.826175
C    -7.238190  -2.463207  1.074883
N    -7.556453  -3.397446  0.173792
N    -7.922923  -2.377999  2.220643
H    -4.234150  1.626021  2.374358
H    -3.574310  0.348927  3.378047
H    -3.565542  -1.212953  1.358756
H    -4.190812  0.109885  0.360459
H    -6.244436  0.226962  1.842597
H    -5.621504  -1.158354  2.773503
H    -5.940406  -1.529549  -0.150142
H    -6.924736  -3.657023  -0.575374
H    -8.439658  -3.895487  0.219063
H    -7.947070  -1.525267  2.766189
H    -8.596529  -3.093926  2.474590
N    -2.132103  3.605088  2.646203
C    -3.103297  4.098617  1.664655
H    -1.768861  4.304314  3.301131
H    -4.067756  4.289378  2.153949
H    -3.235583  3.388705  0.843963
H    -2.726811  5.044158  1.256924
Cd    0.903455  1.043921  4.083341
