37
Energy: -175315.035664 eV PBE+vdW (tier 2 basis)
C    -0.614925  -0.047708  0.536893
C    -0.832452  -0.245226  2.000419
O    -1.138217  -1.431183  2.380310
H    -0.463792  0.999516  0.253569
H    -1.479976  -0.453204  -0.007694
H    0.254441  -0.643047  0.220152
N    -0.704978  0.818088  2.810414
C    -1.049995  1.052941  4.240997
C    -0.043465  0.427085  5.232078
O    0.003555  -0.828363  5.517594
H    -0.407611  1.659392  2.320580
H    -0.923996  2.139281  4.345996
C    -2.522503  0.746131  4.614758
C    -3.525737  1.722498  3.968193
C    -4.964523  1.504761  4.472720
N    -5.879718  2.473646  3.864842
C    -7.028730  2.930308  4.412350
N    -7.647158  3.973736  3.852150
N    -7.531654  2.368305  5.517064
H    -2.590446  0.817902  5.711499
H    -2.791589  -0.289785  4.355325
H    -3.502231  1.611887  2.872490
H    -3.227932  2.757785  4.195167
H    -4.997933  1.647128  5.562490
H    -5.292861  0.474349  4.254790
H    -5.730031  2.711750  2.888796
H    -7.178445  4.583718  3.191598
H    -8.606673  4.207190  4.087381
H    -8.296872  2.809219  6.018201
H    -7.320051  1.411398  5.772196
N    0.769460  1.238780  5.875685
C    1.760462  0.815483  6.877676
H    0.691330  2.238892  5.700096
H    1.257342  0.554901  7.817907
H    2.448110  1.647715  7.050111
H    2.313352  -0.055252  6.509852
Cd    -0.663556  -2.335019  4.217357
