37
Energy: -175315.078128 eV PBE+vdW (tier 2 basis)
C    0.808450  0.955378  0.701855
C    0.890525  1.201274  2.169409
O    1.430298  2.298619  2.547583
H    0.243543  1.780671  0.240953
H    0.325431  0.005142  0.448789
H    1.818143  0.989948  0.268672
N    0.383709  0.280197  3.009614
C    0.086601  0.413347  4.451892
C    1.331502  0.050315  5.300201
O    2.209476  0.946835  5.585108
H    0.022081  -0.557689  2.556652
H    -0.098721  1.482481  4.649513
C    -1.231060  -0.331696  4.777958
C    -1.749541  -0.093192  6.213291
C    -3.269748  -0.253764  6.416407
N    -3.741852  -1.641416  6.466364
C    -4.805345  -2.065403  7.193785
N    -5.041277  -3.377342  7.295587
N    -5.598332  -1.195674  7.824641
H    -1.122504  -1.407621  4.555044
H    -1.969392  0.048964  4.055139
H    -1.536010  0.949555  6.494991
H    -1.217293  -0.718845  6.944175
H    -3.812417  0.312767  5.640831
H    -3.509529  0.202001  7.385802
H    -3.437284  -2.280530  5.739125
H    -5.925913  -3.727186  7.650207
H    -4.330858  -4.068037  7.082883
H    -6.274772  -1.515282  8.511577
H    -5.674063  -0.227363  7.536425
N    1.502289  -1.180311  5.730982
C    2.659397  -1.673091  6.493301
H    0.763136  -1.852178  5.535510
H    2.938226  -2.658909  6.105285
H    2.392723  -1.763624  7.554418
H    3.493240  -0.975864  6.386413
Cd    2.410139  2.679523  4.377614
