23
Energy: -30563.2666355 eV PBE+vdW (tier 2 basis)
N    0.865169  -0.025099  0.636216
C    0.393574  0.033194  2.056693
C    1.555467  -0.389763  2.948935
O    2.468481  -1.118838  2.505784
H    0.038323  -0.075428  0.030338
H    1.302540  0.873823  0.399680
H    0.121122  1.067514  2.319184
C    -0.855195  -0.870371  2.348558
C    -1.198874  -2.096663  1.455844
C    -1.997440  -1.741408  0.192411
C    -0.053857  -3.074413  1.114829
H    -1.732162  -0.210599  2.331019
H    -0.771685  -1.213565  3.390252
H    -1.884487  -2.673984  2.095458
H    -2.865358  -1.115466  0.432276
H    -2.377873  -2.649897  -0.292672
H    -1.406969  -1.209363  -0.572903
H    -0.434911  -4.094340  0.974255
H    0.713040  -3.156849  1.909066
H    0.366879  -2.834630  0.109337
O    1.606068  -0.048315  4.205601
H    0.887668  0.553237  4.490861
Ca    2.447479  -1.892777  0.495980
