23
Energy: -30563.2262457 eV PBE+vdW (tier 2 basis)
N    0.012258  0.661089  0.614715
C    0.207264  -0.059981  1.921105
C    1.606621  -0.639051  1.939490
O    2.236589  -0.810585  0.865551
H    -0.989668  0.583271  0.389139
H    0.148919  1.666872  0.774456
H    0.082573  0.642326  2.760544
C    -0.819161  -1.212471  2.075612
C    -2.294821  -0.753951  2.120818
C    -3.187141  -1.999234  2.233603
C    -2.565979  0.243492  3.250380
H    -0.590335  -1.754418  3.006606
H    -0.669804  -1.939633  1.258161
H    -2.550893  -0.268564  1.156359
H    -4.244557  -1.711528  2.196183
H    -3.018038  -2.518760  3.187038
H    -3.007009  -2.713950  1.419476
H    -3.631222  0.502452  3.279741
H    -2.021417  1.193992  3.140287
H    -2.310619  -0.186234  4.229898
O    2.180400  -1.028232  3.039555
H    1.656462  -0.857580  3.849647
Ca    1.596580  -0.160816  -1.050834
