23
Energy: -30563.1190818 eV PBE+vdW (tier 2 basis)
N    -0.286691  0.123093  -0.152235
C    0.033906  -0.176170  1.292606
C    1.511565  0.119498  1.488866
O    2.300465  0.060753  0.511674
H    -1.102186  -0.447664  -0.407123
H    -0.631961  1.089573  -0.215986
H    -0.555076  0.482415  1.948861
C    -0.338493  -1.652168  1.599758
C    -0.158702  -2.193707  3.042129
C    1.243223  -2.750779  3.325064
C    -0.656576  -1.224243  4.121962
H    0.206759  -2.307692  0.898138
H    -1.407599  -1.720614  1.339537
H    -0.843402  -3.056214  3.072952
H    1.259284  -3.239926  4.306860
H    2.033890  -1.988685  3.345678
H    1.526881  -3.511770  2.585445
H    -0.698950  -1.729867  5.094064
H    -1.661945  -0.834043  3.911854
H    0.005132  -0.351029  4.290192
O    2.001056  0.433999  2.646437
H    1.328267  0.405089  3.366868
Ca    1.720859  -0.149471  -1.517988
