23
Energy: -30563.3652838 eV PBE+vdW (tier 2 basis)
N    1.076393  0.191866  0.876431
C    0.253007  0.070467  2.128942
C    1.131096  -0.596144  3.181302
O    2.088102  -1.319037  2.832701
H    0.433854  0.387325  0.100385
H    1.649350  1.042738  0.946254
H    -0.025325  1.076206  2.482412
C    -1.073657  -0.700357  1.868398
C    -1.125814  -2.243081  1.723115
C    -0.111265  -2.896574  0.758506
C    -1.129645  -2.991758  3.063744
H    -1.503498  -0.229304  0.969367
H    -1.767137  -0.429602  2.677477
H    -2.111212  -2.413084  1.262034
H    -0.507643  -3.834870  0.348912
H    0.785365  -3.237478  1.325303
H    0.128516  -2.275229  -0.128223
H    -1.326418  -4.060306  2.907872
H    -1.920674  -2.614582  3.723645
H    -0.173818  -2.919636  3.602904
O    0.898091  -0.455029  4.455531
H    0.155650  0.147902  4.665064
Ca    2.480682  -1.784433  0.749925
