23
Energy: -30563.3820738 eV PBE+vdW (tier 2 basis)
N    0.640108  -0.512289  0.162603
C    0.037246  -0.074790  1.458845
C    1.200601  0.273684  2.385862
O    2.295857  -0.307120  2.249140
H    -0.111252  -0.841607  -0.454275
H    1.034617  0.302835  -0.322338
H    -0.597761  0.815362  1.323502
C    -0.859245  -1.209029  2.047589
C    -0.343255  -2.671088  1.981788
C    0.709729  -3.061637  3.046449
C    -1.534703  -3.641333  2.084148
H    -1.804183  -1.162179  1.487481
H    -1.121215  -0.959322  3.086535
H    0.050073  -2.852451  0.946931
H    1.538200  -2.349276  3.234164
H    1.113621  -4.072165  2.869965
H    0.229996  -3.114276  4.034483
H    -2.062092  -3.490335  3.035951
H    -1.201656  -4.685878  2.048583
H    -2.250177  -3.484859  1.267948
O    1.068368  1.131092  3.358658
H    0.203952  1.591101  3.377929
Ca    2.314170  -2.099440  0.988059
