23
Energy: -30563.3855435 eV PBE+vdW (tier 2 basis)
N    -0.042250  0.514036  0.248419
C    -0.224835  0.322320  1.743647
C    1.048902  0.979219  2.343754
O    1.015399  1.173325  3.636128
H    -0.214050  -0.336133  -0.302762
H    -0.626320  1.268034  -0.134438
H    -1.110237  0.894322  2.047820
C    -0.409922  -1.185340  2.044979
C    -0.502693  -1.659360  3.521698
C    0.878470  -1.944973  4.158744
C    -1.445325  -0.818250  4.403745
H    0.406473  -1.743271  1.559029
H    -1.340430  -1.491811  1.543288
H    -0.984708  -2.646947  3.462526
H    1.337293  -2.845585  3.728853
H    0.793124  -2.183932  5.237427
H    1.646411  -1.169417  3.965529
H    -2.472665  -0.818935  4.014060
H    -1.196644  0.263352  4.442581
H    -1.524653  -1.237589  5.420243
O    1.975073  1.251411  1.597838
H    0.975261  0.805302  0.175520
Ca    0.954434  0.500622  5.532903
