23
Energy: -30563.8823973 eV PBE+vdW (tier 2 basis)
N    1.216709  -1.630749  -0.539473
C    0.294755  -0.742377  0.284538
C    1.147632  0.051658  1.269087
O    0.576438  0.851679  2.078169
H    2.184038  -1.268161  -0.501416
H    1.215069  -2.591241  -0.145353
H    -0.113570  0.011011  -0.407998
C    -0.883498  -1.530539  0.884558
C    -0.594696  -2.716018  1.836497
C    0.075498  -3.930529  1.166610
C    0.141285  -2.317868  3.121308
H    -1.498273  -1.880179  0.040721
H    -1.499866  -0.783827  1.405501
H    -1.602632  -3.047397  2.131784
H    -0.360691  -4.174593  0.186555
H    -0.047061  -4.826478  1.788444
H    1.175734  -3.829425  1.074181
H    -0.351985  -1.480040  3.631383
H    1.195482  -2.053355  2.926044
H    0.168531  -3.161378  3.822317
O    2.430045  -0.042680  1.234324
H    0.912373  -1.691132  -1.519608
Ca    2.510684  1.453617  2.883828
