23
Energy: -30563.4315678 eV PBE+vdW (tier 2 basis)
N    0.589820  -0.531981  0.193094
C    0.116833  0.061067  1.482962
C    1.369978  0.405982  2.287570
O    2.389445  -0.302225  2.163870
H    -0.228565  -0.859904  -0.331528
H    0.989846  0.210374  -0.394017
H    -0.484845  0.967051  1.307509
C    -0.751186  -0.948912  2.287458
C    -0.125027  -2.314764  2.674114
C    -0.829616  -2.885634  3.919792
C    -0.166446  -3.386272  1.555457
H    -1.675954  -1.118409  1.713756
H    -1.070465  -0.438311  3.207000
H    0.923078  -2.139240  3.022471
H    -0.707514  -2.220459  4.782775
H    -0.426369  -3.869003  4.191154
H    -1.904230  -3.005153  3.725257
H    0.399848  -4.292745  1.828329
H    0.113225  -3.061295  0.529713
H    -1.200609  -3.728622  1.406494
O    1.388355  1.377984  3.155558
H    0.575311  1.923666  3.168378
Ca    2.239089  -2.153197  1.000834
