23
Energy: -30563.2266484 eV PBE+vdW (tier 2 basis)
N    -0.023385  -0.409755  -0.337859
C    -0.183586  -0.200720  1.148627
C    1.191264  -0.286587  1.787603
O    2.154249  -0.805751  1.166877
H    -0.852756  -0.920554  -0.664642
H    -0.101390  0.503772  -0.802030
H    -0.593850  0.803453  1.335301
C    -1.156288  -1.254342  1.744096
C    -1.425324  -1.195514  3.264170
C    -1.848527  0.199038  3.749424
C    -2.502078  -2.235081  3.610911
H    -0.789597  -2.261802  1.483274
H    -2.112310  -1.108647  1.213512
H    -0.506450  -1.502325  3.793467
H    -2.753656  0.548525  3.231934
H    -1.097028  1.003677  3.611592
H    -2.068881  0.179725  4.823123
H    -2.215490  -3.243140  3.283564
H    -3.464445  -1.983041  3.143816
H    -2.658639  -2.273105  4.695357
O    1.404562  0.142600  2.991333
H    0.589218  0.500766  3.418536
Ca    2.135730  -1.442840  -0.851376
