23
Energy: -30563.1134957 eV PBE+vdW (tier 2 basis)
N    0.852859  -0.180635  0.221535
C    0.109343  -0.055905  1.527806
C    0.996994  0.743437  2.468141
O    2.245002  0.707204  2.330062
H    0.467494  -0.996378  -0.270412
H    0.600469  0.614521  -0.380084
H    -0.840970  0.478799  1.373614
C    -0.202584  -1.470225  2.080208
C    -0.888441  -1.548031  3.466793
C    -1.859336  -2.737057  3.495324
C    0.128936  -1.647021  4.612608
H    0.732257  -2.060459  2.104164
H    -0.853783  -1.934216  1.322326
H    -1.501055  -0.634347  3.600459
H    -2.345739  -2.810721  4.475268
H    -1.327743  -3.683353  3.320426
H    -2.648019  -2.639958  2.737781
H    -0.379382  -1.607570  5.583533
H    0.882237  -0.846217  4.619120
H    0.661873  -2.607621  4.566170
O    0.515134  1.464579  3.433783
H    -0.462099  1.428483  3.504269
Ca    3.251453  -0.186075  0.682741
