23
Energy: -30563.4664694 eV PBE+vdW (tier 2 basis)
N    0.865359  -0.294617  0.443435
C    0.034840  0.008885  1.654671
C    0.975642  0.305690  2.805592
O    2.147652  -0.139990  2.844225
H    0.276142  -0.807024  -0.222478
H    1.077948  0.588646  -0.036153
H    -0.572178  0.910297  1.491343
C    -0.943695  -1.157228  2.041098
C    -0.687267  -2.586213  1.510055
C    0.710639  -3.190764  1.807776
C    -1.782378  -3.503903  2.081473
H    -1.937940  -0.856652  1.687990
H    -1.024468  -1.188196  3.137634
H    -0.817244  -2.585200  0.414975
H    1.204349  -2.737492  2.690582
H    1.351155  -3.193830  0.895787
H    0.644274  -4.259801  2.049199
H    -1.719166  -4.505090  1.637854
H    -2.782532  -3.109253  1.863430
H    -1.689355  -3.604394  3.171832
O    0.454661  1.026138  3.755177
H    1.076163  1.161539  4.505466
Ca    2.849398  -1.450547  1.254039
