23
Energy: -30563.8050004 eV PBE+vdW (tier 2 basis)
N    1.176270  0.826185  0.261094
C    0.485907  -0.053252  1.295477
C    1.458952  -1.148284  1.707359
O    1.387548  -1.629341  2.881435
H    1.851740  1.480067  0.683525
H    1.692137  0.225984  -0.405080
H    0.250031  0.575466  2.162690
C    -0.799749  -0.646435  0.671125
C    -1.511537  -1.739619  1.510783
C    -3.027408  -1.673443  1.267903
C    -1.013434  -3.158482  1.187849
H    -0.562096  -1.045841  -0.329011
H    -1.491663  0.197682  0.527835
H    -1.331345  -1.533183  2.577771
H    -3.436784  -0.706557  1.587556
H    -3.547546  -2.454666  1.835490
H    -3.270224  -1.814977  0.205424
H    -1.429664  -3.890512  1.890281
H    0.095818  -3.255503  1.218299
H    -1.297109  -3.464861  0.171392
O    2.241155  -1.649384  0.822838
H    0.488117  1.384214  -0.266177
Ca    2.435886  -3.417258  2.177142
