23
Energy: -30563.8621729 eV PBE+vdW (tier 2 basis)
N    1.039400  -1.555545  -0.833030
C    0.206012  -0.734674  0.144106
C    1.155134  -0.095894  1.145248
O    0.703489  0.801620  1.922984
H    1.913923  -1.845642  -0.360069
H    0.536600  -2.397732  -1.144769
H    -0.288035  0.054489  -0.437253
C    -0.882933  -1.569002  0.860585
C    -0.497365  -2.648591  1.901450
C    0.372806  -3.785963  1.348824
C    0.066952  -2.114850  3.234501
H    -1.493414  -2.037087  0.071465
H    -1.544878  -0.827264  1.330416
H    -1.472143  -3.091915  2.161739
H    -0.040744  -4.208602  0.421258
H    0.425108  -4.615828  2.064522
H    1.415585  -3.476225  1.170084
H    -0.474697  -1.227941  3.592991
H    1.157128  -1.910808  3.146129
H    -0.006687  -2.883594  4.013649
O    2.346078  -0.555450  1.271904
H    1.299685  -1.012924  -1.668340
Ca    2.352996  0.409424  3.293605
