23
Energy: -30563.3133708 eV PBE+vdW (tier 2 basis)
N    1.262759  0.192319  0.857424
C    0.417194  0.282897  2.091373
C    1.305991  -0.097531  3.273733
O    2.331552  -0.786109  3.096522
H    0.643381  0.216095  0.040223
H    1.823340  1.050089  0.778501
H    0.074265  1.320288  2.241416
C    -0.862480  -0.595572  1.998726
C    -0.805265  -2.109992  1.660900
C    -0.426015  -2.458429  0.213820
C    -0.069134  -3.005074  2.667204
H    -1.510060  -0.102503  1.257387
H    -1.395292  -0.482051  2.955071
H    -1.865509  -2.402255  1.741624
H    -0.931976  -1.828176  -0.529482
H    -0.672974  -3.503116  -0.012799
H    0.663678  -2.373138  -0.022114
H    -0.363257  -4.053891  2.538463
H    -0.257209  -2.731006  3.713155
H    1.040333  -3.013396  2.561009
O    1.004543  0.254237  4.492172
H    0.220777  0.837153  4.562554
Ca    2.654358  -1.775841  1.195115
