23
Energy: -30563.3893279 eV PBE+vdW (tier 2 basis)
N    0.546225  -0.587158  0.261327
C    0.060684  -0.043271  1.575248
C    1.283109  0.198405  2.452029
O    2.342060  -0.427409  2.237622
H    -0.257698  -1.012795  -0.213967
H    0.801900  0.204577  -0.342725
H    -0.464749  0.910143  1.407487
C    -0.935362  -1.012416  2.275229
C    -0.426318  -2.235270  3.070492
C    -1.649364  -2.996341  3.608505
C    0.502495  -3.216091  2.308205
H    -1.650333  -1.337136  1.500179
H    -1.535701  -0.405223  2.967567
H    0.143338  -1.867935  3.939972
H    -2.238569  -3.437598  2.792083
H    -2.310267  -2.331950  4.179257
H    -1.339066  -3.806282  4.279720
H    0.308376  -3.244249  1.216467
H    0.347248  -4.250495  2.641853
H    1.568729  -3.035953  2.568019
O    1.243355  1.010113  3.470893
H    0.401106  1.500853  3.563457
Ca    2.481803  -1.978518  0.726083
