23
Energy: -30563.8014146 eV PBE+vdW (tier 2 basis)
N    0.693806  0.354196  0.577018
C    -0.177660  0.506605  1.818676
C    0.740442  0.653593  3.024317
O    0.425874  1.457143  3.955090
H    1.447448  -0.327943  0.765970
H    0.138480  0.007716  -0.219948
H    -0.777616  1.415688  1.691902
C    -1.060901  -0.754503  1.945969
C    -1.944178  -0.894554  3.211211
C    -3.037925  -1.934873  2.916934
C    -1.174161  -1.314608  4.483867
H    -0.416533  -1.645743  1.858808
H    -1.730786  -0.752721  1.071578
H    -2.435309  0.072084  3.406427
H    -3.719777  -2.030985  3.770145
H    -2.607477  -2.926579  2.717449
H    -3.639924  -1.643454  2.046752
H    -0.413728  -2.083155  4.274603
H    -1.862339  -1.734172  5.227589
H    -0.728603  -0.432245  4.989843
O    1.735476  -0.148236  3.133752
H    1.132817  1.241367  0.289197
Ca    1.653572  0.241378  5.321850
