23
Energy: -30563.5711181 eV PBE+vdW (tier 2 basis)
N    0.630199  0.075792  0.419511
C    -0.008374  0.123769  1.772702
C    1.118551  0.297050  2.779885
O    2.263405  -0.156114  2.557516
H    -0.096349  -0.127341  -0.276444
H    0.969116  1.012935  0.169987
H    -0.688741  0.981404  1.876023
C    -0.841361  -1.170009  2.025485
C    -0.240930  -2.535181  1.599360
C    0.824086  -3.127817  2.553213
C    -1.372160  -3.564824  1.421601
H    -1.780250  -1.029720  1.470951
H    -1.129475  -1.203366  3.086158
H    0.171562  -2.426023  0.560583
H    1.289946  -4.035850  2.136205
H    0.338348  -3.455259  3.483730
H    1.608533  -2.443151  2.935689
H    -0.977421  -4.545874  1.129984
H    -2.087244  -3.244049  0.654700
H    -1.917528  -3.689468  2.367027
O    0.781631  0.919648  3.871622
H    1.529432  0.987417  4.507867
Ca    2.362025  -1.572969  0.853644
