23
Energy: -30563.9187432 eV PBE+vdW (tier 2 basis)
N    -0.40350595  0.17203351  1.00251740
C    -0.13870475  0.26103959  2.49909754
C    1.31809753  0.64007476  2.71647061
O    1.75677658  0.75183357  3.90785972
H    0.10157464  0.90590383  0.48363183
H    -0.09601270  -0.73673157  0.62603609
H    -0.75581649  1.09571355  2.86775731
C    -0.54849549  -1.04072236  3.20277557
C    -2.02024922  -1.46117232  2.98522875
C    -2.28983551  -2.73886871  3.79225901
C    -3.01173049  -0.34940595  3.34772980
H    -0.36629614  -0.87980859  4.27565278
H    0.12935171  -1.85261516  2.88919291
H    -2.15962250  -1.72669617  1.91891165
H    -2.20725044  -2.54652900  4.87113165
H    -1.58820576  -3.54300717  3.53374630
H    -3.30360636  -3.10772669  3.59659171
H    -2.89377080  -0.03463277  4.39450251
H    -4.04215985  -0.70488094  3.22763681
H    -2.92844862  0.55376995  2.71846656
O    2.08964958  0.85627681  1.71136969
H    -1.41344304  0.25536254  0.81589737
Ca    3.72870407  1.31078926  3.15653643
