23
Energy: -30563.2311718 eV PBE+vdW (tier 2 basis)
N    0.753012  0.081822  0.332912
C    -0.191033  0.241102  1.501483
C    0.486196  1.147420  2.521191
O    1.485073  1.840347  2.195210
H    1.217286  -0.830667  0.441736
H    0.184371  -0.040581  -0.512823
H    -1.057599  0.824114  1.140722
C    -0.705101  -1.108489  2.050070
C    -1.905015  -1.072567  3.032209
C    -3.088550  -0.251847  2.508296
C    -2.315073  -2.518333  3.352707
H    0.134561  -1.659440  2.504837
H    -1.029852  -1.692273  1.173894
H    -1.585306  -0.657461  4.018105
H    -2.870765  0.821355  2.389960
H    -3.933808  -0.318824  3.203501
H    -3.435226  -0.639353  1.539507
H    -3.110012  -2.531369  4.107292
H    -1.474699  -3.108746  3.739844
H    -2.701006  -3.016798  2.452367
O    0.029230  1.261495  3.724527
H    -0.717599  0.628997  3.899472
Ca    2.438914  1.856902  0.308059
