23
Energy: -30563.2022925 eV PBE+vdW (tier 2 basis)
N    -0.257905  -0.879537  -0.220716
C    -0.098397  -0.198300  1.112754
C    1.382466  -0.003591  1.362252
O    2.223926  -0.725067  0.770331
H    -1.150776  -1.390789  -0.184822
H    -0.421362  -0.158356  -0.935419
H    -0.604917  0.780917  1.104312
C    -0.692167  -1.062528  2.260755
C    -2.220880  -0.926515  2.465761
C    -2.607636  0.468874  2.965378
C    -3.056582  -1.346906  1.249590
H    -0.194231  -0.789940  3.203286
H    -0.415340  -2.115696  2.071566
H    -2.435741  -1.642115  3.276228
H    -3.674879  0.501075  3.216972
H    -2.451655  1.250114  2.203685
H    -2.053988  0.749346  3.871846
H    -4.116153  -1.420226  1.524467
H    -2.775435  -2.341643  0.864636
H    -3.018590  -0.606773  0.432711
O    1.831199  0.859591  2.225557
H    1.134451  1.407086  2.644049
Ca    1.762857  -2.135116  -0.751673
