23
Energy: -30563.8282068 eV PBE+vdW (tier 2 basis)
N    -0.316422  -0.179526  -0.058779
C    -0.472741  -0.104435  1.456093
C    0.827441  0.443301  2.026639
O    1.908297  0.365822  1.332576
H    0.642404  -0.488578  -0.291450
H    -0.987512  -0.854158  -0.454694
H    -1.289879  0.596835  1.670221
C    -0.815686  -1.511381  1.996396
C    -1.195880  -1.590612  3.490912
C    -2.362834  -0.662630  3.846358
C    -1.516926  -3.053745  3.828159
H    0.022526  -2.193948  1.780390
H    -1.681726  -1.866248  1.409593
H    -0.317472  -1.292817  4.087690
H    -2.116338  0.403908  3.740645
H    -2.656769  -0.810398  4.892464
H    -3.248763  -0.878446  3.230844
H    -2.405612  -3.402552  3.283287
H    -1.727569  -3.157850  4.899087
H    -0.683792  -3.727323  3.585683
O    0.845089  0.934785  3.200925
H    -0.469570  0.727372  -0.522309
Ca    3.003733  1.254624  3.060271
