23
Energy: -30563.9394655 eV PBE+vdW (tier 2 basis)
N    -0.126082  0.874408  1.448469
C    0.909383  -0.061507  2.049140
C    2.090016  -0.158087  1.099718
O    3.171189  -0.698209  1.504751
H    0.042773  1.862261  1.679960
H    -0.119770  0.788022  0.418880
H    1.241556  0.380020  2.998153
C    0.277842  -1.446401  2.301385
C    -0.970378  -1.424155  3.212496
C    -1.487878  -2.861558  3.370620
C    -0.705420  -0.763728  4.569460
H    1.060284  -2.062031  2.768674
H    0.033203  -1.917715  1.335342
H    -1.783986  -0.865619  2.698971
H    -2.418701  -2.869009  3.949821
H    -0.756297  -3.481568  3.907103
H    -1.693692  -3.334389  2.401386
H    0.106747  -1.274804  5.105688
H    -1.600287  -0.820410  5.200662
H    -0.444081  0.304516  4.502233
O    1.979915  0.261178  -0.110975
H    -1.060014  0.610880  1.808150
Ca    4.070679  -0.436092  -0.466088
