23
Energy: -30563.8183615 eV PBE+vdW (tier 2 basis)
N    0.368777  -0.967943  -0.903972
C    0.091814  -0.382787  0.478414
C    1.333050  0.383166  0.915827
O    2.352364  0.453079  0.133058
H    -0.505507  -1.093487  -1.432903
H    1.011167  -0.365071  -1.442913
H    -0.718827  0.351973  0.349404
C    -0.368483  -1.500914  1.433747
C    -1.087811  -1.037221  2.720641
C    -2.314304  -0.170025  2.417420
C    -1.468496  -2.282822  3.533059
H    0.494896  -2.137648  1.688097
H    -1.074468  -2.132159  0.865631
H    -0.377330  -0.445034  3.317767
H    -2.841433  0.074990  3.347409
H    -3.032405  -0.695847  1.770510
H    -2.063691  0.793456  1.947151
H    -2.196579  -2.905651  2.993824
H    -1.928259  -1.988943  4.484046
H    -0.594616  -2.906088  3.766249
O    1.347456  0.968222  2.046743
H    0.816396  -1.893341  -0.824642
Ca    3.363292  1.721095  1.665434
