23
Energy: -30563.2055585 eV PBE+vdW (tier 2 basis)
N    0.046647  0.391151  0.262493
C    0.355009  -0.052487  1.670966
C    1.828767  -0.427872  1.731446
O    2.601215  -0.145839  0.781391
H    -0.463404  -0.380395  -0.189925
H    -0.661567  1.132223  0.323143
H    0.252977  0.836256  2.319943
C    -0.594360  -1.148616  2.195542
C    -2.089667  -0.756599  2.212618
C    -2.902163  -1.931415  2.774694
C    -2.346627  0.533183  2.998406
H    -0.308561  -1.391332  3.235117
H    -0.445683  -2.071655  1.610467
H    -2.420340  -0.605545  1.167992
H    -3.975009  -1.711174  2.724953
H    -2.651366  -2.118061  3.828571
H    -2.727159  -2.858715  2.213227
H    -2.009010  0.442638  4.041258
H    -3.420307  0.755012  3.024938
H    -1.863039  1.424728  2.564478
O    2.344612  -1.014954  2.767641
H    1.683649  -1.240570  3.456543
Ca    2.081228  0.881842  -0.997154
