21
Energy: -101663.310753 eV PBE+vdW (tier 2 basis)
N    0.454830  0.491663  -0.072133
C    0.213583  0.025150  1.325634
C    1.507876  0.172262  2.122212
O    2.355911  1.020182  1.776190
H    -0.543744  0.710044  -0.376124
H    0.745069  -0.314813  -0.638544
H    -0.452796  0.788441  1.769667
C    -0.510934  -1.332321  1.451629
C    -1.727707  -1.526948  0.510004
C    -2.641149  -0.311569  0.356047
O    -2.182008  0.785485  -0.030979
N    -3.941198  -0.476401  0.622883
H    -0.862436  -1.435900  2.491357
H    0.191746  -2.158363  1.262285
H    -2.281126  -2.408785  0.855290
H    -1.379469  -1.774585  -0.504314
H    -4.333111  -1.366679  0.906758
H    -4.581283  0.298201  0.467390
O    1.740208  -0.519989  3.205088
H    1.041051  -1.176369  3.400846
Sr    2.197808  2.339203  -0.124478
