21
Energy: -101663.535097 eV PBE+vdW (tier 2 basis)
N    -0.299081  0.400981  0.163221
C    0.123353  -0.062757  1.455943
C    1.642079  -0.131423  1.517967
O    2.374492  0.055470  0.504671
H    -0.168166  -0.277298  -0.585572
H    -1.262003  0.729189  0.155467
H    -0.138544  0.731148  2.179428
C    -0.484445  -1.420214  1.996942
C    -1.287497  -1.326330  3.301526
C    -0.523242  -1.237083  4.595254
O    0.727110  -0.921060  4.689035
N    -1.144667  -1.475057  5.729884
H    0.277172  -2.210257  2.075446
H    -1.182114  -1.761589  1.222766
H    -1.955586  -2.197043  3.382949
H    -1.959817  -0.450291  3.274460
H    -2.125055  -1.739369  5.754273
H    -0.651477  -1.387829  6.617082
O    2.210779  -0.389153  2.669571
H    1.235909  -0.727448  3.813241
Sr    4.374297  -0.014955  1.664500
