21
Energy: -101662.557897 eV PBE+vdW (tier 2 basis)
N    -0.088362  0.351477  0.088529
C    -0.169884  -0.162241  1.448350
C    1.222693  -0.608244  1.879581
O    2.251145  -0.290145  1.340820
H    0.852052  0.703792  -0.100637
H    -0.749596  1.111021  -0.067861
H    -0.435471  0.610467  2.197069
C    -1.271774  -1.252272  1.536979
C    -1.199187  -2.251816  0.371905
C    -0.484939  -3.541975  0.553848
O    -0.637151  -4.476046  -0.344239
N    0.304822  -3.769114  1.578738
H    -2.235625  -0.733844  1.452626
H    -1.286897  -1.731556  2.524469
H    -0.692541  -1.692547  -0.453856
H    -2.198266  -2.501248  -0.012259
H    0.802046  -4.651803  1.664523
H    0.499978  -3.035799  2.277326
O    1.186968  -1.410477  3.003092
H    2.110374  -1.484397  3.322630
Sr    -1.044718  -5.731483  -2.049940
