21
Energy: -101663.594746 eV PBE+vdW (tier 2 basis)
N    0.174266  -0.094075  0.056022
C    -0.043111  0.035206  1.478707
C    1.209295  -0.251980  2.353973
O    1.267446  -1.192056  3.181448
H    0.742582  -0.896252  -0.214308
H    0.570196  0.743399  -0.367327
H    -0.347200  1.072459  1.687569
C    -1.092021  -0.947495  1.996867
C    -2.515022  -1.064982  1.483288
C    -3.156589  -2.225232  2.248467
O    -2.489056  -2.861412  3.128864
N    -4.409480  -2.552099  1.982710
H    -1.172543  -0.741491  3.080218
H    -0.641403  -1.943453  1.821307
H    -2.539827  -1.262471  0.401680
H    -3.097820  -0.147222  1.651713
H    -4.955774  -2.058777  1.282180
H    -4.858300  -3.317523  2.481416
O    2.220768  0.542002  2.110726
H    3.006030  0.304235  2.650059
Sr    -0.331105  -2.839002  4.070462
