21
Energy: -101663.557778 eV PBE+vdW (tier 2 basis)
N    1.185495  0.758425  2.389623
C    0.697940  -0.574421  2.713602
C    1.346145  -1.436805  1.630699
O    2.493686  -1.938509  1.837056
H    0.593919  1.299215  1.764070
H    1.432996  1.312754  3.205191
H    1.204492  -0.887605  3.636206
C    -0.819671  -0.758280  2.973016
C    -1.834477  -0.052536  2.034765
C    -2.435936  -0.909438  0.964875
O    -1.715099  -1.589924  0.133316
N    -3.739294  -0.991283  0.821078
H    -0.991086  -0.338552  3.972548
H    -1.055748  -1.829396  3.063745
H    -1.374505  0.812655  1.526517
H    -2.647466  0.371554  2.635807
H    -4.373967  -0.489819  1.434802
H    -4.142812  -1.555676  0.074386
O    0.806268  -1.584914  0.448405
H    -0.699601  -1.503207  0.296312
Sr    2.905083  -2.495218  -0.355927
