21
Energy: -101664.863008 eV PBE+vdW (tier 2 basis)
N    0.779380  0.468154  1.212937
C    0.012215  -0.190086  2.351330
C    0.917123  -1.315128  2.869570
O    0.644567  -1.839418  3.978338
H    1.296119  1.299100  1.530683
H    0.184683  0.751815  0.424048
H    -0.151874  0.562897  3.130776
C    -1.350327  -0.749918  1.895025
C    -1.351079  -1.934387  0.882528
C    -1.475803  -3.314574  1.514135
O    -0.493128  -3.891249  2.055369
N    -2.667851  -3.900699  1.473605
H    -1.928206  0.080800  1.464788
H    -1.885805  -1.027143  2.812847
H    -0.438929  -1.954049  0.268545
H    -2.184446  -1.786501  0.185060
H    -2.795037  -4.826647  1.875893
H    -3.468145  -3.474164  1.018268
O    1.814289  -1.744626  2.064487
H    1.479340  -0.249226  0.910495
Sr    1.542188  -3.931082  3.191222
