21
Energy: -101664.166496 eV PBE+vdW (tier 2 basis)
N    0.089677  -1.532580  0.372937
C    0.169425  -0.358030  1.298922
C    1.548038  0.287719  1.320685
O    1.811287  1.352352  1.781980
H    -0.113845  -1.173511  -0.566792
H    -0.752312  -2.061804  0.623244
H    -0.493852  0.438950  0.927877
C    -0.308349  -0.646820  2.747187
C    0.643057  -1.299298  3.776512
C    0.913493  -2.774268  3.611944
O    1.464526  -3.222479  2.557111
N    0.583711  -3.597703  4.594454
H    -1.255977  -1.203396  2.687663
H    -0.572179  0.332428  3.167365
H    0.221250  -1.110462  4.771967
H    1.621457  -0.791339  3.773035
H    0.154935  -3.265251  5.453179
H    0.788882  -4.592539  4.525596
O    2.570533  -0.529446  0.749214
H    3.380768  0.024077  0.787626
Sr    2.225480  -2.991600  0.434295
