21
Energy: -101662.827175 eV PBE+vdW (tier 2 basis)
N    -0.384221  -0.130052  0.252091
C    -0.348700  -0.580699  1.680902
C    1.042388  -0.236661  2.232865
O    1.837268  0.418577  1.597871
H    0.130616  -0.767669  -0.366573
H    0.080849  0.785940  0.170251
H    -1.073684  0.064738  2.199391
C    -0.761732  -2.052997  1.847459
C    -1.933923  -2.578787  0.974845
C    -3.164602  -1.697259  0.815132
O    -4.337840  -2.235396  1.153905
N    -3.023175  -0.518188  0.318159
H    -0.995871  -2.188592  2.910578
H    0.102609  -2.701928  1.646129
H    -2.235772  -3.549508  1.383683
H    -1.570215  -2.788209  -0.043525
H    -1.452347  -0.112210  0.010674
H    -3.896224  0.004144  0.209949
O    1.210166  -0.721849  3.467511
H    2.093731  -0.450067  3.793802
Sr    -6.235371  -3.101507  1.524598
