21
Energy: -101663.107011 eV PBE+vdW (tier 2 basis)
N    -0.846667  0.447179  0.078430
C    -0.279554  0.483178  1.467058
C    1.249801  0.498547  1.283931
O    1.763124  0.207336  0.224581
H    -0.107956  0.034509  -0.524928
H    -1.032007  1.388643  -0.282054
H    -0.600623  1.409686  1.961027
C    -0.701265  -0.747735  2.293402
C    -2.157544  -0.822122  2.788382
C    -3.226575  -1.191343  1.779426
O    -4.340131  -1.719195  2.293204
N    -3.044939  -0.983404  0.523499
H    -0.059460  -0.746451  3.184427
H    -0.444796  -1.661234  1.735261
H    -2.458012  0.130307  3.258048
H    -2.199785  -1.566607  3.595589
H    -1.778686  -0.155511  0.089752
H    -3.832078  -1.264471  -0.066855
O    1.878206  0.833147  2.410811
H    2.846071  0.809682  2.256667
Sr    -6.087845  -2.599085  3.099645
