21
Energy: -101664.429715 eV PBE+vdW (tier 2 basis)
N    0.707245  -0.070797  0.119153
C    -0.067036  0.223319  1.384335
C    0.963447  1.056557  2.225264
O    0.556729  1.439296  3.380602
H    0.288610  0.317309  -0.732398
H    0.893117  -1.068266  -0.032788
H    -0.891127  0.895951  1.111595
C    -0.588946  -1.034185  2.115194
C    -2.111639  -1.209027  2.175716
C    -2.864459  -0.280226  3.116166
O    -2.294988  0.327367  4.067602
N    -4.174099  -0.161061  2.926179
H    -0.181496  -1.045713  3.134216
H    -0.174961  -1.934271  1.638796
H    -2.327080  -2.229912  2.534552
H    -2.562596  -1.152824  1.173868
H    -4.741841  0.376927  3.576171
H    -4.658254  -0.657527  2.184143
O    2.056389  1.269442  1.701858
H    1.633350  0.448525  0.358443
Sr    -0.692364  1.552116  5.199330
