21
Energy: -101662.691154 eV PBE+vdW (tier 2 basis)
N    0.666914  0.746560  0.580214
C    0.192339  0.196368  1.839917
C    1.331754  0.179336  2.856872
O    1.594336  -0.743572  3.626164
H    -0.107003  1.058290  -0.005402
H    1.288533  1.542052  0.718228
H    -0.594797  0.813201  2.335130
C    -0.397677  -1.203764  1.564077
C    -1.317617  -1.800322  2.670853
C    -0.817940  -3.060315  3.321538
O    -1.598461  -4.104556  3.404832
N    0.392055  -3.090815  3.806965
H    0.418391  -1.889481  1.301009
H    -1.000725  -1.103163  0.653748
H    -2.315965  -2.008995  2.270992
H    -1.460815  -1.061155  3.478287
H    0.973000  -2.202130  3.744689
H    0.761020  -3.922817  4.260189
O    2.016095  1.317706  2.861833
H    2.724379  1.268410  3.537221
Sr    -3.012363  -5.723831  3.483361
