21
Energy: -101662.416214 eV PBE+vdW (tier 2 basis)
N    -0.393252  0.207999  0.075778
C    -0.571971  0.135015  1.509848
C    0.715546  0.390351  2.314141
O    1.831035  0.127443  1.961955
H    0.424893  -0.327137  -0.222496
H    -0.251382  1.168181  -0.236393
H    -1.302305  0.907878  1.794882
C    -1.143200  -1.267888  1.836174
C    -1.416771  -1.608177  3.326667
C    -2.495164  -0.768534  3.941281
O    -3.722632  -1.194719  3.973877
N    -2.195379  0.414269  4.424071
H    -0.431916  -2.023318  1.472216
H    -2.054545  -1.383436  1.233388
H    -0.496717  -1.495708  3.916380
H    -1.721213  -2.659545  3.399044
H    -1.224234  0.763702  4.335711
H    -2.906338  1.024701  4.820010
O    0.444881  0.971880  3.551771
H    1.307885  1.133379  3.988124
Sr    -5.647281  -2.187722  3.918357
