21
Energy: -101663.583781 eV PBE+vdW (tier 2 basis)
N    -0.120561  -1.050788  -0.168314
C    -0.264343  -0.286637  1.080910
C    1.194848  -0.216574  1.538272
O    1.998143  0.520259  0.884684
H    -0.936536  -1.632939  -0.354147
H    0.020665  -0.438209  -0.970171
H    -0.608476  0.750807  0.921901
C    -1.231458  -1.009677  2.021998
C    -1.428285  -0.369558  3.423815
C    -0.909849  -1.218227  4.544378
O    0.277774  -1.734856  4.508104
N    -1.635484  -1.468484  5.608631
H    -0.933267  -2.064938  2.110266
H    -2.207953  -1.017135  1.520885
H    -2.485817  -0.142820  3.601276
H    -0.904163  0.599103  3.496504
H    -2.581096  -1.110227  5.702657
H    -1.259530  -2.031233  6.371216
O    1.675528  -0.986038  2.475004
H    0.789609  -1.477053  3.656813
Sr    3.880228  -0.629965  1.553576
