21
Energy: -101663.319106 eV PBE+vdW (tier 2 basis)
N    -0.219260  -0.763533  0.206753
C    0.369122  -0.808925  1.577412
C    1.529815  -1.812296  1.548428
O    2.141260  -2.002319  0.477597
H    -0.876357  -1.553664  0.142445
H    -0.885926  0.081402  0.277904
H    0.885857  0.159269  1.728668
C    -0.682061  -0.950065  2.698108
C    -1.391505  0.355528  3.116097
C    -2.226100  1.079814  2.059510
O    -1.893169  1.134230  0.855949
N    -3.314868  1.717144  2.503859
H    -0.206682  -1.321518  3.621331
H    -1.414354  -1.721535  2.413580
H    -0.639740  1.085428  3.460992
H    -2.012191  0.131344  3.993570
H    -3.604725  1.700246  3.474650
H    -3.858167  2.279115  1.854086
O    1.956599  -2.431185  2.614889
H    1.413792  -2.245795  3.408161
Sr    1.540716  -1.077161  -1.571735
