21
Energy: -101664.442795 eV PBE+vdW (tier 2 basis)
N    0.766912  1.110332  0.148353
C    0.232997  0.902270  1.550559
C    1.481240  1.226306  2.439714
O    1.248030  1.418794  3.688882
H    0.543690  0.352924  -0.507576
H    1.823895  1.150872  0.356207
H    -0.557553  1.639528  1.737260
C    -0.302538  -0.540314  1.675258
C    -0.605634  -1.081011  3.090955
C    -1.659162  -0.348880  3.905819
O    -1.338212  0.372728  4.893309
N    -2.936475  -0.495858  3.567937
H    0.446943  -1.225715  1.249363
H    -1.201603  -0.626606  1.046341
H    0.312900  -1.108433  3.687518
H    -0.926598  -2.126295  2.969736
H    -3.231388  -1.131260  2.833393
H    -3.664190  -0.045698  4.118844
O    2.567248  1.273465  1.863729
H    0.473140  1.999809  -0.271272
Sr    0.474360  1.540041  5.759669
