21
Energy: -101664.598868 eV PBE+vdW (tier 2 basis)
N    0.032216  -2.239001  0.982605
C    0.139751  -0.752830  0.931514
C    1.623780  -0.373297  0.954593
O    2.474321  -1.135009  1.426827
H    -0.898902  -2.483118  1.332267
H    0.044603  -2.594123  0.020627
H    -0.300370  -0.381192  -0.008721
C    -0.625775  -0.028700  2.076372
C    -0.019060  0.062453  3.497793
C    -0.047218  -1.201148  4.330053
O    0.633094  -2.216286  3.996888
N    -0.788935  -1.218920  5.428823
H    -1.639032  -0.456596  2.116918
H    -0.774957  1.008366  1.745469
H    -0.557417  0.861217  4.023814
H    1.031768  0.390824  3.456114
H    -1.326774  -0.412716  5.731451
H    -0.798947  -2.042783  6.026892
O    2.007383  0.806737  0.520040
H    1.292092  1.327528  0.104174
Sr    2.007531  -3.231124  2.465290
