21
Energy: -101662.86333 eV PBE+vdW (tier 2 basis)
N    0.516074  -0.714076  0.339470
C    -0.089064  0.001551  1.466792
C    0.998142  0.414830  2.455558
O    1.021166  0.145706  3.653008
H    1.390329  -0.274789  0.049416
H    -0.103095  -0.687337  -0.472278
H    -0.548411  0.966172  1.169377
C    -1.216635  -0.843652  2.094363
C    -0.883912  -2.345924  2.258318
C    -0.605381  -2.866387  3.630024
O    -0.916512  -4.107478  3.910290
N    -0.043417  -2.114226  4.537605
H    -2.072731  -0.777965  1.410467
H    -1.556028  -0.386881  3.033209
H    0.009521  -2.541294  1.624070
H    -1.682378  -2.970206  1.839222
H    0.171199  -2.486747  5.459068
H    0.296107  -1.143985  4.276688
O    1.934283  1.158315  1.870337
H    2.596735  1.432216  2.538386
Sr    -1.473985  -6.165537  4.143960
