21
Energy: -101662.410291 eV PBE+vdW (tier 2 basis)
N    -0.326265  -0.134834  0.220133
C    0.160825  -0.115051  1.592987
C    1.572972  -0.705581  1.749230
O    2.074103  -1.457774  0.950107
H    0.089426  0.625193  -0.318829
H    -0.010391  -0.998089  -0.234076
H    0.199109  0.931287  1.934513
C    -0.808606  -0.936293  2.486402
C    -2.261209  -0.500373  2.281120
C    -2.769322  0.671816  3.042991
O    -3.998601  1.056959  2.872654
N    -2.001422  1.340458  3.876805
H    -0.495573  -0.922018  3.541464
H    -0.738003  -1.990117  2.180822
H    -2.971645  -1.323452  2.456262
H    -2.338719  -0.240021  1.200259
H    -1.041713  1.045689  4.043848
H    -2.344089  2.148832  4.389876
O    2.142595  -0.295571  2.907095
H    3.025865  -0.713584  2.974032
Sr    -6.048175  1.358418  2.235256
