21
Energy: -101662.736963 eV PBE+vdW (tier 2 basis)
N    0.103807  0.663870  0.417258
C    -0.571940  0.380173  1.660174
C    0.258839  0.386716  2.956799
O    -0.245501  0.501830  4.077093
H    0.890349  0.038478  0.243127
H    0.449456  1.620886  0.371543
H    -1.316131  1.178493  1.815234
C    -1.326568  -0.967800  1.486033
C    -2.110030  -1.552610  2.690527
C    -3.214668  -0.679520  3.220984
O    -4.457751  -0.935773  2.918101
N    -2.903762  0.333376  3.985109
H    -0.597921  -1.737537  1.192794
H    -1.988594  -0.829353  0.620923
H    -1.421003  -1.765198  3.520130
H    -2.550003  -2.509005  2.382885
H    -1.868190  0.520341  4.160711
H    -3.617521  0.955716  4.357199
O    1.564125  0.255436  2.766549
H    2.021860  0.278933  3.633555
Sr    -6.442014  -1.595224  2.397168
