21
Energy: -101663.626058 eV PBE+vdW (tier 2 basis)
N    -0.001355  -1.633776  0.708750
C    -0.124915  -0.362020  1.509472
C    1.258100  0.217141  1.889607
O    1.513355  0.684997  2.970683
H    0.664436  -2.248147  1.194609
H    0.499658  -1.389531  -0.154292
H    -0.574509  0.378643  0.828914
C    -1.038141  -0.460149  2.739939
C    -0.636659  -1.407956  3.883725
C    -1.188694  -2.812419  3.809776
O    -1.707920  -3.268762  2.736870
N    -1.119806  -3.576562  4.886288
H    -2.080307  -0.656611  2.428555
H    -1.073377  0.554135  3.157488
H    -0.955589  -0.969016  4.840221
H    0.460521  -1.472850  3.972353
H    -0.726221  -3.236707  5.759788
H    -1.471768  -4.531245  4.868360
O    2.101297  0.132753  0.840208
H    2.955203  0.547852  1.084257
Sr    -2.175212  -2.988711  0.558751
