21
Energy: -101664.362145 eV PBE+vdW (tier 2 basis)
N    -1.128638  1.246154  0.476043
C    -0.664434  0.197515  1.389996
C    0.571276  0.788091  2.105385
O    1.213178  0.150211  2.973855
H    -2.066818  1.589753  0.674499
H    -1.071928  0.993296  -0.509875
H    -1.409424  0.053990  2.189626
C    -0.334399  -1.169964  0.733586
C    -1.334178  -2.295231  1.009804
C    -1.295570  -2.875478  2.412158
O    -0.306226  -2.694081  3.187894
N    -2.323814  -3.616710  2.799939
H    0.670826  -1.498728  1.030572
H    -0.272742  -1.027647  -0.353724
H    -1.122218  -3.136177  0.327574
H    -2.362845  -1.983336  0.774216
H    -3.119950  -3.788054  2.192160
H    -2.315736  -4.084237  3.703276
O    0.873382  1.983605  1.753922
H    0.126889  2.174316  1.040756
Sr    1.533864  -1.757138  4.168521
