23
Energy: -237156.38048 eV PBE+vdW (tier 2 basis)
N    1.136973  -1.316721  0.788008
C    0.277881  -0.492509  1.693742
C    1.164591  -0.016557  2.834398
O    2.082052  -0.748109  3.261382
H    0.503600  -1.849190  0.179202
H    1.635627  -0.690238  0.144999
H    -0.140068  0.377760  1.160165
C    -0.909201  -1.351697  2.251404
C    -2.059837  -1.494174  1.229290
C    -1.464869  -0.817437  3.578608
C    -1.751755  -2.079737  -0.150611
H    -0.479097  -2.358560  2.441927
H    -2.536290  -0.507994  1.111365
H    -2.816079  -2.126083  1.716947
H    -0.727204  -0.802205  4.392001
H    -2.293111  -1.454222  3.910514
H    -1.878304  0.195645  3.466425
H    -1.177171  -1.398972  -0.798120
H    -2.687088  -2.269031  -0.691510
H    -1.238159  -3.053883  -0.090318
O    0.982164  1.138799  3.416682
H    0.248251  1.657656  3.030282
Ba    2.959837  -2.811324  2.297902
