23
Energy: -237156.552792 eV PBE+vdW (tier 2 basis)
N    -0.334236  0.197575  0.124644
C    -0.074091  -0.105796  1.560915
C    1.381207  -0.529380  1.699914
O    2.000797  -1.020733  0.738478
H    0.000912  1.145893  -0.077505
H    -1.351100  0.257723  0.002347
H    -0.247270  0.785546  2.186736
C    -1.026061  -1.234254  2.086406
C    -0.906810  -2.556307  1.293827
C    -2.467598  -0.709322  2.154875
C    -1.686377  -3.729147  1.900919
H    -0.698998  -1.445834  3.118035
H    0.157289  -2.860685  1.240318
H    -1.291580  -2.396040  0.261386
H    -2.524501  0.250548  2.683545
H    -3.104905  -1.414101  2.700064
H    -2.923663  -0.583626  1.160366
H    -1.493333  -4.655981  1.348042
H    -2.767708  -3.554188  1.881298
H    -1.383997  -3.896927  2.942675
O    1.997509  -0.442861  2.851893
H    1.468332  -0.009949  3.551912
Ba    1.039710  -1.680758  -1.433786
