23
Energy: -237156.5422 eV PBE+vdW (tier 2 basis)
N    0.542876  0.042399  0.294137
C    -0.021635  0.075191  1.673329
C    1.139968  0.206484  2.649763
O    2.273887  -0.211581  2.354158
H    0.764460  1.002648  0.008551
H    -0.208508  -0.242195  -0.342279
H    -0.693458  0.941073  1.799552
C    -0.861339  -1.205604  2.010665
C    -0.079812  -2.542855  1.945413
C    -2.164511  -1.225931  1.199887
C    0.070711  -3.228985  0.575921
H    -1.146139  -1.076685  3.067352
H    -0.609497  -3.255858  2.593447
H    0.894804  -2.432729  2.459201
H    -2.007745  -1.316155  0.115003
H    -2.759364  -0.321500  1.377787
H    -2.778068  -2.084766  1.500615
H    0.734278  -4.104975  0.639952
H    0.411160  -2.570508  -0.247987
H    -0.889101  -3.613681  0.209330
O    0.957741  0.704385  3.847445
H    0.055818  1.052706  3.997476
Ba    2.884642  -1.524483  0.348533
