23
Energy: -237156.376971 eV PBE+vdW (tier 2 basis)
N    0.373561  -0.063089  -0.140967
C    0.284332  -0.250974  1.342883
C    1.701243  -0.417131  1.885446
O    2.697991  -0.323174  1.135029
H    -0.361732  0.597419  -0.412048
H    0.069462  -0.944129  -0.573969
H    -0.073922  0.701972  1.772546
C    -0.739471  -1.361605  1.757284
C    -2.130974  -1.070269  1.140371
C    -0.845567  -1.554635  3.282555
C    -2.792681  0.240407  1.567649
H    -0.374731  -2.309399  1.322875
H    -2.774245  -1.915372  1.424435
H    -2.082416  -1.125153  0.040773
H    -0.032793  -2.167270  3.702160
H    -1.757756  -2.116825  3.518940
H    -0.935876  -0.604398  3.833822
H    -2.938618  0.301420  2.653425
H    -3.783783  0.328308  1.107119
H    -2.228915  1.136285  1.259419
O    1.918991  -0.601934  3.156099
H    1.082180  -0.738480  3.658744
Ba    2.962373  0.457145  -1.130880
