23
Energy: -237157.043382 eV PBE+vdW (tier 2 basis)
N    -0.009447  0.497807  0.705309
C    0.197265  -0.464672  1.862996
C    1.580170  -1.086974  1.660326
O    2.160916  -1.659571  2.632129
H    -1.001539  0.486920  0.417023
H    0.594977  0.175970  -0.074712
H    0.189299  0.117085  2.793484
C    -0.953158  -1.519203  1.888189
C    -2.343550  -0.844847  1.755207
C    -0.863434  -2.388342  3.149552
C    -2.700712  0.211941  2.802046
H    -0.819451  -2.168270  1.004909
H    -3.077764  -1.662522  1.792250
H    -2.491917  -0.437797  0.734315
H    0.070050  -2.958101  3.203516
H    -1.691259  -3.107204  3.151161
H    -0.938572  -1.789338  4.065950
H    -2.658358  -0.188964  3.821725
H    -3.723747  0.570521  2.639041
H    -2.050689  1.100902  2.770311
O    2.105923  -1.031025  0.490610
H    0.248909  1.464255  0.938098
Ba    4.153085  -2.369574  1.307566
