23
Energy: -237156.432017 eV PBE+vdW (tier 2 basis)
N    0.869811  -0.021681  0.385444
C    0.079809  0.219382  1.633922
C    1.013109  0.802905  2.691859
O    2.162525  1.195055  2.402718
H    0.231053  0.081404  -0.409047
H    1.108895  -1.022351  0.377589
H    -0.636070  1.031778  1.414616
C    -0.731976  -1.013996  2.125860
C    0.193192  -2.186438  2.514753
C    -1.812946  -1.390690  1.104352
C    -0.520240  -3.325511  3.248142
H    -1.270424  -0.689363  3.038320
H    1.014952  -1.816148  3.153240
H    0.668449  -2.603590  1.607321
H    -2.436732  -0.529207  0.829783
H    -2.482190  -2.151117  1.520615
H    -1.383292  -1.818427  0.186609
H    0.200331  -4.092311  3.554911
H    -1.269609  -3.817330  2.616841
H    -1.023447  -2.962709  4.154670
O    0.609889  0.958233  3.923518
H    -0.286781  0.591645  4.074917
Ba    3.305432  1.382613  0.270839
