23
Energy: -237156.51262 eV PBE+vdW (tier 2 basis)
N    0.021037  -0.221333  -0.149969
C    -0.011759  -0.066318  1.331251
C    1.428514  -0.049303  1.827888
O    2.348766  -0.541826  1.151411
H    0.254164  0.684671  -0.570882
H    -0.936319  -0.408726  -0.466865
H    -0.477282  0.893148  1.613907
C    -0.872346  -1.194025  2.004279
C    -0.523720  -2.636869  1.566854
C    -2.362626  -0.902080  1.764845
C    0.719237  -3.299091  2.178344
H    -0.687486  -1.120389  3.088606
H    -0.536377  -2.696388  0.455579
H    -1.385261  -3.265998  1.831760
H    -2.635448  0.115949  2.069765
H    -2.978143  -1.596702  2.349167
H    -2.657503  -1.033155  0.712173
H    1.667678  -2.747266  2.054491
H    0.850094  -4.323596  1.801207
H    0.609334  -3.391820  3.267113
O    1.723684  0.454925  3.000298
H    0.963442  0.871072  3.454563
Ba    2.018377  -2.110617  -0.735767
