23
Energy: -237156.449819 eV PBE+vdW (tier 2 basis)
N    0.786050  -0.636334  -0.055129
C    0.574362  -0.448620  1.412741
C    1.875432  -0.834561  2.103043
O    2.581332  -1.756242  1.650456
H    -0.129146  -0.569357  -0.514055
H    1.308787  0.169091  -0.417682
H    0.342657  0.604127  1.640839
C    -0.649527  -1.297312  1.900273
C    -0.965099  -1.112089  3.407060
C    -0.588641  -2.775309  1.489345
C    -0.258970  -2.044069  4.397944
H    -1.491001  -0.842208  1.350559
H    -2.050157  -1.246558  3.519442
H    -0.794177  -0.056463  3.677607
H    -0.605872  -2.909409  0.391510
H    -1.488822  -3.298117  1.838233
H    0.257597  -3.314236  1.948892
H    0.837049  -2.028405  4.332808
H    -0.586235  -3.085376  4.285041
H    -0.515869  -1.748911  5.422303
O    2.278612  -0.222802  3.186626
H    1.674132  0.488944  3.478620
Ba    2.230273  -3.026832  -0.425194
