23
Energy: -237156.268827 eV PBE+vdW (tier 2 basis)
N    0.498756  0.340178  0.225251
C    0.325883  -0.081385  1.651731
C    1.722119  -0.270892  2.248627
O    2.738904  0.157657  1.661645
H    0.378385  -0.501705  -0.354156
H    -0.314628  0.909960  -0.025875
H    -0.097406  0.789236  2.184630
C    -0.628350  -1.300465  1.918840
C    -1.755025  -1.447295  0.864714
C    -1.261190  -1.184102  3.319405
C    -1.408701  -2.264905  -0.383132
H    -0.018963  -2.219629  1.870476
H    -2.165142  -0.458515  0.599385
H    -2.586923  -1.959466  1.367795
H    -1.794298  -2.108661  3.568327
H    -1.983840  -0.356102  3.350583
H    -0.569785  -0.999831  4.162133
H    -0.640691  -1.817740  -1.038108
H    -2.296286  -2.392414  -1.014619
H    -1.051236  -3.267363  -0.112913
O    1.890485  -0.869572  3.392853
H    1.036637  -1.177813  3.775261
Ba    3.022159  1.415115  -0.385417
