23
Energy: -237157.023705 eV PBE+vdW (tier 2 basis)
N    -0.153194  0.262996  0.420320
C    0.132769  -0.172579  1.847678
C    1.617779  -0.547709  1.884327
O    2.233103  -0.582538  2.993296
H    -0.025685  1.272328  0.278112
H    -1.127041  0.018315  0.173468
H    -0.049851  0.687482  2.505489
C    -0.805829  -1.352048  2.260397
C    -2.277094  -1.041010  1.890829
C    -0.650759  -1.633203  3.760412
C    -3.266197  -2.136327  2.302147
H    -0.488726  -2.244612  1.691317
H    -2.398105  -0.926393  0.794555
H    -2.573783  -0.080720  2.345470
H    0.391305  -1.791361  4.056483
H    -1.209094  -2.536024  4.027927
H    -1.049348  -0.802895  4.360071
H    -2.963668  -3.119431  1.916992
H    -4.259722  -1.912221  1.896991
H    -3.366784  -2.207604  3.390871
O    2.193787  -0.846886  0.777294
H    0.512405  -0.237931  -0.197457
Ba    4.392901  -1.367939  2.018204
