23
Energy: -237156.406476 eV PBE+vdW (tier 2 basis)
N    0.533458  -0.899331  0.018673
C    0.249660  -0.345729  1.377292
C    1.572858  -0.271472  2.121301
O    2.454856  -1.133236  1.922556
H    0.803868  -0.130527  -0.605121
H    -0.363758  -1.224899  -0.360700
H    -0.197912  0.660014  1.309207
C    -0.749549  -1.276759  2.143467
C    -2.143396  -1.217532  1.478422
C    -0.819125  -0.949768  3.639252
C    -3.100450  -2.318341  1.941268
H    -0.350857  -2.308251  2.035052
H    -2.063390  -1.282237  0.378448
H    -2.580548  -0.226801  1.681065
H    0.132961  -1.102754  4.163835
H    -1.552191  -1.598131  4.130409
H    -1.153160  0.085178  3.807781
H    -4.044778  -2.249732  1.388508
H    -3.345849  -2.236617  3.006463
H    -2.686370  -3.321078  1.764012
O    1.816911  0.659633  3.004570
H    1.080632  1.294944  3.113518
Ba    2.577082  -2.823994  0.172387
