18
Energy: -29461.0103767 eV PBE+vdW (tier 2 basis)
N    0.324360  -0.027754  -0.067617
C    0.158771  0.057714  1.436753
C    1.516779  0.220730  2.088904
O    2.565874  0.178436  1.404382
H    -0.314518  0.664731  -0.471228
H    -0.454372  0.938623  1.680307
C    -0.557059  -1.254809  1.886791
C    -1.213973  -1.763967  0.598064
C    -0.195498  -1.393552  -0.474708
H    -1.281257  -1.062859  2.686299
H    0.173848  -1.985266  2.262849
H    -2.166576  -1.249584  0.407738
H    -1.416574  -2.840433  0.633172
H    -0.601428  -1.346310  -1.491947
H    0.642556  -2.115304  -0.467139
O    1.640827  0.381628  3.373788
H    0.792950  0.406159  3.864198
Ca    2.630291  0.141816  -0.729605
