22
Energy: -102129.411631 eV PBE+vdW (tier 2 basis)
N    1.07927  0.88750  3.35395
C    1.22359  -0.44478  2.77518
C    2.28975  -0.41143  1.66932
O    2.10089  0.06592  0.51731
H    1.86405  1.19428  3.92936
H    0.83761  1.61361  2.67880
H    3.64220  -1.19862  2.81379
H    1.59784  -1.11153  3.56767
C    -0.14323  -0.98036  2.28775
C    -1.09503  -1.27657  3.40807
N    -1.44157  -0.37199  4.40626
C    -1.84381  -2.40089  3.65155
C    -2.35307  -0.91109  5.22398
N    -2.60611  -2.14221  4.77047
H    -0.00740  -1.90891  1.71667
H    -0.59094  -0.24663  1.59793
H    -1.01539  0.54734  4.52107
H    -1.90509  -3.34385  3.12170
H    -2.80011  -0.43981  6.09312
H    -3.27230  -2.78705  5.19548
O    3.52028  -0.80477  1.92415
Sr    3.11258  0.52583  -1.51759
