22
Energy: -102130.451017 eV PBE+vdW (tier 2 basis)
N    0.65011  -0.55765  0.11844
C    0.13706  0.16344  1.35618
C    1.39039  0.73466  2.07923
O    2.50420  0.68479  1.45767
H    0.09372  -0.37044  -0.72680
H    0.69953  -1.57884  0.24453
H    1.62796  -0.21682  -0.02682
H    -0.42322  1.03756  0.99154
C    -0.74966  -0.71133  2.27145
C    -2.11955  -1.07743  1.77660
N    -3.22821  -0.23340  1.84458
C    -2.60200  -2.27301  1.30183
C    -4.32843  -0.87834  1.43530
N    -3.95629  -2.11536  1.09867
H    -0.83683  -0.16125  3.22103
H    -0.21760  -1.64095  2.52473
H    -3.24761  0.71857  2.20654
H    -2.10923  -3.22383  1.13291
H    -5.33494  -0.47214  1.39282
H    -4.59526  -2.83783  0.76274
O    1.25744  1.26199  3.21703
Sr    3.59456  1.93303  3.30488
