22
Energy: -102129.606543 eV PBE+vdW (tier 2 basis)
N    0.16982  -0.67223  -0.16040
C    0.14654  -0.32578  1.29170
C    1.54489  0.19037  1.67587
O    2.37422  0.47598  0.79782
H    -0.76469  -0.51780  -0.55339
H    0.31794  -1.68475  -0.25699
H    1.15962  0.10968  3.55333
H    -0.51607  0.54918  1.40726
C    -0.39746  -1.50244  2.17463
C    -0.68976  -1.25142  3.62948
N    -1.86346  -0.66621  4.11005
C    -0.00701  -1.66562  4.75322
C    -1.89723  -0.72344  5.44720
N    -0.77198  -1.32064  5.84675
H    0.30876  -2.34436  2.12421
H    -1.32391  -1.85559  1.69631
H    -2.63300  -0.29584  3.55371
H    0.92262  -2.21614  4.85680
H    -2.69375  -0.35292  6.08733
H    -0.53517  -1.51181  6.82263
O    1.86657  0.38269  2.92529
Sr    2.28150  0.50509  -1.52083
