22
Energy: -102129.201739 eV PBE+vdW (tier 2 basis)
N    -0.25622  -1.20200  -0.00470
C    -0.13298  -0.25228  1.08168
C    1.31529  0.22413  1.09596
O    1.72240  1.25956  0.48087
H    -0.39032  -0.81855  -0.93592
H    0.39195  -1.98614  -0.00085
H    3.09014  -0.31570  1.61080
H    -0.73870  0.62674  0.82745
C    -0.68844  -0.79474  2.43888
C    -0.54401  -2.25730  2.73413
N    0.19007  -2.77054  3.80010
C    -1.17009  -3.34366  2.16969
C    0.02152  -4.09608  3.89098
N    -0.79687  -4.45274  2.89786
H    -1.76555  -0.57875  2.41082
H    -0.29052  -0.19968  3.27307
H    0.73647  -2.23149  4.46785
H    -1.86417  -3.40468  1.34077
H    0.45909  -4.75297  4.63549
H    -1.11526  -5.40707  2.73009
O    2.14963  -0.57266  1.72085
Sr    2.31361  3.20661  -0.54844
