22
Energy: -102129.536213 eV PBE+vdW (tier 2 basis)
N    0.11280  0.91490  1.25503
C    0.13818  -0.04047  2.40228
C    1.58009  -0.58662  2.54300
O    2.47403  -0.18629  1.77967
H    -0.48549  1.71101  1.49350
H    -0.36155  0.46918  0.46195
H    1.20325  -1.69482  4.09687
H    -0.02285  0.54144  3.32604
C    -0.91276  -1.18220  2.32048
C    -2.34217  -0.80128  2.60603
N    -3.40134  -1.57992  2.14487
C    -2.91786  0.16849  3.38946
C    -4.56352  -1.11638  2.62128
N    -4.28042  -0.05224  3.37406
H    -0.63769  -1.98698  3.02271
H    -0.84674  -1.64927  1.32406
H    -3.33309  -2.40748  1.55314
H    -2.49016  0.97428  3.97339
H    -5.54949  -1.52918  2.42753
H    -4.97855  0.50353  3.87024
O    1.91358  -1.42838  3.47870
Sr    2.69478  1.56867  0.30875
