22
Energy: -102129.482239 eV PBE+vdW (tier 2 basis)
N    0.73332  -0.32952  0.01671
C    0.26503  -0.05518  1.40558
C    1.50378  0.24632  2.26835
O    2.59234  0.49142  1.72209
H    0.91165  -1.33623  -0.08464
H    -0.03848  -0.13759  -0.63144
H    0.55118  0.18580  3.95693
H    -0.26020  0.91734  1.37035
C    -0.78650  -1.03875  1.99406
C    -0.41056  -2.47018  2.27920
N    -1.33110  -3.49929  2.08610
C    0.67729  -3.06684  2.87214
C    -0.84059  -4.65903  2.53819
N    0.38196  -4.40805  3.01104
H    -1.63759  -1.02953  1.29671
H    -1.20543  -0.59023  2.91248
H    -2.26853  -3.40536  1.69469
H    1.61243  -2.66103  3.23888
H    -1.34346  -5.62211  2.52140
H    0.99108  -5.11210  3.43053
O    1.44192  0.31094  3.57051
Sr    3.12353  0.96881  -0.49653
