22
Energy: -102129.353666 eV PBE+vdW (tier 2 basis)
N    0.18149  -0.72395  -0.39773
C    -0.23588  -0.23290  0.90089
C    0.93373  0.56782  1.48892
O    1.95367  0.05073  2.02649
H    1.00321  -1.32567  -0.40085
H    0.21682  -0.03821  -1.14969
H    0.17348  2.26758  0.94549
H    -1.06964  0.46815  0.74050
C    -0.72775  -1.38068  1.81715
C    -1.98587  -2.03033  1.31358
N    -3.15486  -2.10105  2.06721
C    -2.27227  -2.67988  0.13695
C    -4.10664  -2.75971  1.39440
N    -3.57894  -3.11089  0.21946
H    -0.90061  -0.99275  2.83143
H    0.06599  -2.13789  1.90590
H    -3.29009  -1.73725  3.00821
H    -1.65945  -2.86953  -0.73392
H    -5.11327  -2.96964  1.74112
H    -4.07810  -3.63096  -0.50208
O    0.98363  1.87741  1.33544
Sr    4.02534  0.54360  2.92111
