22
Energy: -102129.741371 eV PBE+vdW (tier 2 basis)
N    -0.35885  0.29124  0.44295
C    0.15435  0.34295  1.84442
C    1.67799  0.47170  1.77736
O    2.23423  0.97547  0.78302
H    -1.34910  0.55978  0.44958
H    -0.35956  -0.68538  0.12298
H    3.27440  0.31599  2.81418
H    -0.14070  1.33213  2.24421
C    -0.43478  -0.65858  2.87547
C    -0.26666  -2.14276  2.69062
N    -1.35521  -3.01157  2.76576
C    0.83796  -2.95862  2.61895
C    -0.94369  -4.28463  2.74803
N    0.38746  -4.26179  2.64885
H    -1.50912  -0.43464  2.94532
H    -0.02652  -0.38024  3.85975
H    -2.33220  -2.74450  2.88236
H    1.89548  -2.72933  2.59860
H    -1.57365  -5.16751  2.80585
H    0.97562  -5.09584  2.62859
O    2.31467  0.09424  2.85088
Sr    1.24287  1.77789  -1.19973
