25
Energy: -32071.2938836 eV PBE+vdW (tier 2 basis)
N    -0.579675  0.229943  2.926279
C    0.094358  -0.707685  2.031790
C    1.387387  0.030784  1.687844
O    1.366676  1.039755  0.883946
H    -2.296007  -4.825275  0.602692
H    -1.183630  0.893471  2.445699
H    0.396112  -1.580566  2.626946
C    -0.686234  -1.158833  0.778943
C    -1.966611  -1.930783  1.128154
C    -2.875185  -2.231172  -0.078433
C    -2.459207  -3.395242  -0.970006
N    -2.766772  -4.737780  -0.308595
H    -0.017456  -1.765402  0.145790
H    -0.944830  -0.266422  0.187077
H    -2.556279  -1.337971  1.841575
H    -1.707735  -2.855640  1.676771
H    -2.924690  -1.345188  -0.728698
H    -3.913240  -2.391732  0.256216
H    -1.385192  -3.407103  -1.193124
H    -3.010429  -3.402369  -1.917571
H    -3.778148  -4.840877  -0.141917
H    -2.466445  -5.529816  -0.893791
O    2.484053  -0.270560  2.289811
H    -1.074568  -0.213300  3.694175
Ca    3.324750  1.586764  1.609428
