25
Energy: -32071.2606568 eV PBE+vdW (tier 2 basis)
N    -0.002667  0.121741  0.420243
C    0.864703  -0.726947  1.231021
C    1.591202  -1.590715  0.195138
O    2.798225  -1.309986  -0.151657
H    -0.938195  -0.245834  0.272597
H    -0.020083  1.098418  0.690457
H    1.640355  -0.090597  1.679645
C    0.206682  -1.600555  2.314824
C    -0.297854  -0.870045  3.574256
C    -1.582932  -0.039449  3.402226
C    -2.336307  0.242503  4.696873
N    -1.529373  1.102150  5.668798
H    0.947426  -2.345512  2.644773
H    -0.614868  -2.179062  1.863396
H    0.521155  -0.244132  3.970325
H    -0.485563  -1.647124  4.333530
H    -2.298573  -0.591776  2.773947
H    -1.391309  0.903542  2.867939
H    -2.572740  -0.678840  5.244520
H    -3.268540  0.791278  4.518279
H    -1.293731  2.015065  5.255129
H    -2.056501  1.281795  6.535029
O    0.970422  -2.551325  -0.401843
H    -0.646822  0.642939  5.932983
Ca    2.639888  -2.737533  -1.753427
