25
Energy: -32070.399818 eV PBE+vdW (tier 2 basis)
N    0.432416  0.626013  1.169961
C    -0.120816  0.032061  2.428740
C    1.020953  -0.066907  3.437808
O    2.130417  0.467651  3.206827
H    0.681859  -0.149790  0.459230
H    -0.320880  1.151444  0.714656
H    -0.820573  0.766280  2.867415
C    -0.869112  -1.301516  2.233749
C    0.020240  -2.475230  1.754165
C    -0.326479  -3.038633  0.367285
C    -0.293510  -2.051106  -0.797583
N    0.995526  -1.295695  -0.860253
H    -1.696801  -1.108467  1.535889
H    -1.382203  -1.556436  3.175402
H    -0.049296  -3.298888  2.475889
H    1.083403  -2.177274  1.774407
H    -1.330225  -3.487784  0.393837
H    0.360892  -3.872199  0.155639
H    -1.103842  -1.309943  -0.713033
H    -0.478273  -2.599922  -1.732150
H    1.055598  -0.840168  -1.775032
H    1.767582  -1.969518  -0.852051
O    0.872248  -0.677114  4.577606
H    -0.012041  -1.084743  4.684884
Ca    2.556442  1.610439  1.451845
