25
Energy: -32071.5428786 eV PBE+vdW (tier 2 basis)
N    0.814834  -2.968696  2.342836
C    0.087401  -2.257956  1.315378
C    0.604347  -2.449628  -0.113915
O    1.762915  -2.968534  -0.331991
H    1.821531  -2.817549  2.278316
H    0.649940  -3.973076  2.314622
H    -0.946698  -2.640942  1.289221
C    0.010157  -0.742043  1.643214
C    -0.765237  -0.506508  2.945404
C    -0.708499  0.950315  3.432592
C    -1.479409  1.105875  4.736965
N    -1.426700  2.541242  5.251696
H    -0.463309  -0.207830  0.807065
H    1.038190  -0.355685  1.739698
H    -0.353918  -1.174739  3.716075
H    -1.816310  -0.801876  2.797616
H    -1.129072  1.623830  2.667358
H    0.342352  1.247710  3.584946
H    -1.066508  0.482233  5.539625
H    -2.543954  0.865857  4.623506
H    -1.947982  2.648046  6.133501
H    -0.456730  2.839763  5.426298
O    -0.130496  -2.114329  -1.121957
H    -1.831543  3.198155  4.569834
Ca    1.356699  -2.926636  -2.448903
