25
Energy: -32071.4005055 eV PBE+vdW (tier 2 basis)
N    -0.862980  -0.772072  1.101000
C    0.459143  -0.513132  1.641694
C    1.609576  -0.560609  0.632901
O    2.724785  0.031116  0.898017
H    -2.863064  0.720189  5.921268
H    -1.072869  -0.161699  0.310820
H    0.478194  0.512309  2.047565
C    0.824098  -1.501855  2.782121
C    -0.266582  -1.768549  3.831167
C    -0.815783  -0.544793  4.604673
C    -2.187843  -0.128305  4.090458
N    -2.773068  1.001893  4.934286
H    1.735078  -1.130914  3.272351
H    1.084555  -2.474470  2.335031
H    0.169233  -2.466529  4.557595
H    -1.102047  -2.312393  3.368723
H    -0.111488  0.300979  4.546525
H    -0.896432  -0.807259  5.670781
H    -2.910308  -0.951090  4.159271
H    -2.161722  0.215804  3.049040
H    -3.708560  1.277231  4.604356
H    -2.175525  1.839557  4.911503
O    1.487694  -1.203422  -0.476083
H    -0.947204  -1.730347  0.757277
Ca    3.523119  -0.672642  -0.978342
