25
Energy: -32071.4205645 eV PBE+vdW (tier 2 basis)
N    2.553543  -0.597942  2.897058
C    1.392247  -1.097818  2.160861
C    1.723786  -1.093256  0.674134
O    1.627664  -0.017218  -0.037232
H    -3.374384  2.200374  4.733075
H    3.337021  -1.248365  2.903028
H    1.254982  -2.151790  2.441700
C    0.131007  -0.292679  2.523714
C    -0.210742  -0.484096  4.009398
C    -1.226567  0.505589  4.605334
C    -2.647837  0.303893  4.095905
N    -3.620840  1.207152  4.849017
H    -0.696715  -0.612245  1.871586
H    0.313684  0.771327  2.303315
H    0.719197  -0.377034  4.583982
H    -0.559249  -1.514525  4.184558
H    -0.901052  1.539786  4.405103
H    -1.219230  0.375949  5.699990
H    -3.003578  -0.721556  4.258052
H    -2.766484  0.552825  3.034445
H    -3.602020  1.006420  5.859432
H    -4.590774  1.085724  4.525588
O    2.210580  -2.157867  0.126636
H    2.867640  0.317645  2.576293
Ca    2.533121  -1.073295  -1.692970
