25
Energy: -32070.350297 eV PBE+vdW (tier 2 basis)
N    0.600672  -0.512267  0.049474
C    0.047180  -0.180723  1.428303
C    1.237633  0.067171  2.356845
O    1.029559  0.243548  3.597937
H    -0.008733  -0.166558  -0.703327
H    0.680927  -1.537281  -0.051327
H    -0.472866  0.785763  1.334253
C    -0.927980  -1.260898  1.909324
C    -0.325572  -2.670952  1.991317
C    -1.262253  -3.694061  2.653006
C    -2.535986  -4.013675  1.856586
N    -3.326690  -4.997490  2.571171
H    -1.811782  -1.239356  1.255073
H    -1.280992  -0.941356  2.900098
H    0.616928  -2.638027  2.564113
H    -0.064858  -3.053201  0.984149
H    -1.547832  -3.344730  3.656639
H    -0.696311  -4.625771  2.801947
H    -2.249329  -4.322010  0.827449
H    -3.159298  -3.112413  1.749875
H    -4.281965  -5.070081  2.228933
H    -2.909129  -5.926748  2.575043
O    2.421836  0.145674  1.865541
H    1.547700  -0.108717  -0.053758
Ca    3.164483  0.646224  3.925692
