25
Energy: -32070.4385003 eV PBE+vdW (tier 2 basis)
N    1.003694  0.099882  0.302035
C    0.098127  0.160309  1.524702
C    0.988014  0.281141  2.759239
O    0.448780  0.304215  3.912895
H    1.055673  -0.882402  -0.032535
H    0.647729  0.675161  -0.471735
H    -0.475899  1.097560  1.461902
C    -0.845843  -1.050267  1.572760
C    -0.124533  -2.409025  1.493045
C    -0.014447  -3.030772  0.086500
C    -1.343328  -3.667358  -0.377928
N    -1.773740  -4.668266  0.591708
H    -1.585888  -0.944141  0.765548
H    -1.414478  -0.952303  2.507009
H    -0.695258  -3.143152  2.082308
H    0.868714  -2.347679  1.973752
H    0.762284  -3.809307  0.105403
H    0.304649  -2.321618  -0.706570
H    -1.203894  -4.050451  -1.403702
H    -2.126651  -2.896707  -0.445119
H    -2.775249  -4.841100  0.531011
H    -1.308371  -5.562938  0.438976
O    2.263312  0.388485  2.631087
H    1.956961  0.412698  0.553618
Ca    2.398443  0.550122  4.853720
