25
Energy: -32071.181397 eV PBE+vdW (tier 2 basis)
N    -0.659174  1.254945  0.558159
C    -0.296705  0.023352  1.239379
C    1.091236  0.183768  1.838685
O    1.513968  1.359653  2.151220
H    -2.002410  -4.547799  -0.745556
H    -0.423471  2.077994  1.111811
H    -0.921751  -0.199346  2.139581
C    -0.397642  -1.177638  0.264368
C    -0.699146  -2.541075  0.908431
C    -2.168070  -2.749835  1.324645
C    -3.149241  -3.014681  0.187583
N    -2.962709  -4.411844  -0.400056
H    0.527950  -1.238774  -0.322256
H    -1.177901  -0.911596  -0.464928
H    -0.063077  -2.686232  1.791815
H    -0.376329  -3.335560  0.212727
H    -2.545262  -1.858241  1.848563
H    -2.246979  -3.562144  2.065213
H    -3.030574  -2.319042  -0.652618
H    -4.191009  -2.973697  0.526204
H    -3.141043  -5.137994  0.308247
H    -3.604642  -4.581180  -1.187066
O    1.852746  -0.831744  2.065885
H    -1.657779  1.289439  0.358553
Ca    3.389016  0.528272  2.779409
