25
Energy: -32069.6908417 eV PBE+vdW (tier 2 basis)
N    0.787995  0.502707  1.016183
C    -0.076805  0.056998  2.165345
C    0.822485  -0.105512  3.389081
O    1.980871  0.368446  3.399689
H    0.987108  -0.336271  0.452012
H    0.211539  1.083407  0.397284
H    -0.735667  0.906809  2.419509
C    -0.958450  -1.167495  1.848807
C    -0.189816  -2.458488  1.528743
C    -1.102267  -3.626748  1.122777
C    -1.990233  -4.168441  2.253926
N    -2.781562  -5.279333  1.772227
H    -1.616032  -0.892045  1.009505
H    -1.655972  -1.322012  2.689993
H    0.431650  -2.758340  2.390659
H    0.511373  -2.285590  0.692503
H    -0.463677  -4.443410  0.755009
H    -1.741275  -3.334841  0.275733
H    -2.695439  -3.395628  2.597595
H    -1.347677  -4.422574  3.125537
H    -2.244641  -6.113562  1.544245
H    -3.568967  -5.524989  2.366628
O    0.392546  -0.683912  4.473192
H    -0.511371  -1.050607  4.380393
Ca    2.917671  1.440221  1.799541
