25
Energy: -32071.4204122 eV PBE+vdW (tier 2 basis)
N    1.407604  -2.718136  2.404504
C    0.456149  -2.051860  1.547224
C    0.916090  -1.824822  0.103346
O    0.073793  -1.449126  -0.801569
H    2.335048  -2.296588  2.363115
H    1.503996  -3.709083  2.193316
H    -0.435238  -2.695557  1.449586
C    -0.018187  -0.714240  2.185250
C    -0.727361  -0.994413  3.518168
C    -0.938393  0.214517  4.445176
C    -1.986855  1.198259  3.942190
N    -2.258454  2.274390  4.990372
H    -0.669874  -0.186876  1.473636
H    0.868449  -0.080389  2.354476
H    -0.117343  -1.723639  4.068140
H    -1.695554  -1.485322  3.328764
H    0.020172  0.736324  4.602151
H    -1.254787  -0.169999  5.428680
H    -2.952686  0.712425  3.753869
H    -1.680324  1.732270  3.034656
H    -2.969010  2.950135  4.676431
H    -2.594714  1.854571  5.869164
O    2.138424  -2.045172  -0.237429
H    -1.402730  2.801521  5.215066
Ca    1.606785  -1.710191  -2.296282
