25
Energy: -32070.5436063 eV PBE+vdW (tier 2 basis)
N    -0.119000  0.698274  0.768012
C    0.064802  0.167883  2.180011
C    1.550781  0.025635  2.457471
O    1.944818  -0.149908  3.656939
H    -1.061162  0.430177  0.434634
H    -0.033748  1.721561  0.709763
H    -0.369981  0.907207  2.866399
C    -0.673899  -1.181200  2.333463
C    -2.157557  -1.088113  1.963307
C    -2.960244  -2.327035  2.384097
C    -4.469194  -2.114236  2.182622
N    -4.936716  -0.958244  2.949331
H    -0.566600  -1.466072  3.389657
H    -0.160138  -1.955726  1.740579
H    -2.288022  -0.967668  0.868830
H    -2.631333  -0.216641  2.447085
H    -2.765218  -2.532299  3.449404
H    -2.634590  -3.216417  1.824650
H    -4.984732  -3.057263  2.434652
H    -4.673916  -1.925324  1.118108
H    -5.816626  -0.600598  2.581260
H    -5.106895  -1.203291  3.925050
O    2.390316  0.024067  1.482733
H    0.594819  0.288688  0.143953
Ca    4.011022  -0.336917  2.974220
