25
Energy: -32071.2961979 eV PBE+vdW (tier 2 basis)
N    -0.173176  -3.259763  1.356623
C    -0.567124  -2.041649  0.654847
C    0.635059  -1.733585  -0.232656
O    1.773871  -1.385281  0.268626
H    -0.967159  -3.852622  1.586716
H    0.384333  -3.091701  2.191002
H    -1.361548  -2.320291  -0.049470
C    -1.107598  -0.850084  1.484684
C    -0.260387  -0.368376  2.669688
C    -1.032366  0.660438  3.516629
C    -0.235578  1.111333  4.733326
N    -1.036805  2.094950  5.581372
H    -2.091322  -1.175372  1.859009
H    -1.309200  -0.009989  0.800261
H    0.686252  0.068004  2.318561
H    0.006129  -1.223029  3.312098
H    -1.984877  0.212569  3.845683
H    -1.288212  1.533945  2.894515
H    0.690821  1.632072  4.460993
H    0.017021  0.277026  5.399690
H    -0.507098  2.407285  6.407575
H    -1.292865  2.933481  5.040874
O    0.550220  -1.933933  -1.501935
H    -1.912987  1.669843  5.917160
Ca    2.680596  -1.879271  -1.638869
