25
Energy: -32069.7554068 eV PBE+vdW (tier 2 basis)
N    1.029931  -1.499696  1.948799
C    -0.068527  -0.858856  2.749284
C    0.237685  -1.053702  4.222312
O    1.043397  -1.937627  4.596247
H    1.673269  -0.763781  1.631962
H    0.601828  -1.841023  1.077996
H    -0.115568  0.219075  2.524186
C    -1.444824  -1.494625  2.419222
C    -1.900018  -1.269699  0.967857
C    -2.025218  0.198308  0.556948
C    -2.660148  0.381327  -0.833156
N    -2.623661  1.778343  -1.225677
H    -2.192595  -1.063617  3.101855
H    -1.406634  -2.572126  2.653494
H    -2.873096  -1.774883  0.869839
H    -1.242825  -1.807029  0.258633
H    -1.042590  0.699306  0.529031
H    -2.632467  0.740216  1.301964
H    -3.679413  -0.051677  -0.819884
H    -2.086278  -0.193938  -1.574584
H    -2.709388  1.913851  -2.230389
H    -3.325400  2.351503  -0.760208
O    -0.355180  -0.348855  5.143838
H    -0.957607  0.340172  4.795635
Ca    2.245465  -3.148849  3.309279
