25
Energy: -32071.5346915 eV PBE+vdW (tier 2 basis)
N    2.312734  -0.826878  3.133193
C    1.344527  -1.024803  2.053119
C    2.047744  -0.838636  0.713763
O    2.292103  0.340390  0.241425
H    -4.095288  0.885840  6.313642
H    3.002255  -1.574472  3.191384
H    1.023365  -2.075538  2.087266
C    0.130052  -0.099191  2.231214
C    -0.643296  -0.443002  3.511274
C    -1.770163  0.554807  3.824379
C    -2.490030  0.164657  5.108565
N    -3.607133  1.147906  5.445474
H    -0.526718  -0.185818  1.351991
H    0.478220  0.945268  2.259901
H    0.066870  -0.476271  4.350532
H    -1.068627  -1.455122  3.419055
H    -2.488978  0.587443  2.988684
H    -1.347714  1.568013  3.927979
H    -1.818961  0.161926  5.976535
H    -2.967936  -0.820292  5.036259
H    -4.309732  1.187285  4.693666
H    -3.239624  2.101579  5.571460
O    2.492205  -1.868605  0.073255
H    2.791757  0.071831  3.073498
Ca    3.374368  -0.570315  -1.389513
