25
Energy: -32069.6744696 eV PBE+vdW (tier 2 basis)
N    -0.135316  -0.139339  0.050797
C    0.343836  -0.081997  1.477045
C    1.869627  -0.172004  1.452614
O    2.500988  0.022204  0.389612
H    -0.418042  -1.110841  -0.139518
H    -1.017616  0.381490  -0.002851
H    0.130103  0.939984  1.841846
C    -0.346172  -1.087285  2.417620
C    -1.868311  -0.884063  2.520902
C    -2.518287  -1.690718  3.654485
C    -2.517434  -3.212331  3.452447
N    -3.155477  -3.865078  4.575942
H    0.070722  -0.963904  3.433412
H    -0.095067  -2.113350  2.103361
H    -2.353361  -1.149087  1.566123
H    -2.071835  0.185605  2.692319
H    -3.559184  -1.348013  3.752748
H    -2.032013  -1.455954  4.613737
H    -1.487305  -3.598480  3.395875
H    -2.993788  -3.445485  2.475086
H    -4.145363  -3.651117  4.682047
H    -3.011490  -4.870660  4.616840
O    2.557009  -0.401226  2.532846
H    1.995712  -0.572380  3.318117
Ca    1.655715  0.479557  -1.525341
