25
Energy: -32069.8562535 eV PBE+vdW (tier 2 basis)
N    0.797567  1.169942  1.344534
C    0.262146  0.229634  2.394384
C    1.424366  -0.234302  3.249814
O    2.607134  -0.134854  2.831331
H    0.196290  1.070685  0.516929
H    0.632665  2.135150  1.656559
H    -0.464967  0.755987  3.031554
C    -0.438378  -0.978344  1.720259
C    -1.022658  -2.047620  2.653144
C    -2.017255  -1.547897  3.716326
C    -3.148862  -0.646373  3.186860
N    -3.660822  -1.142496  1.907007
H    0.272508  -1.452268  1.021376
H    -1.273393  -0.568901  1.125729
H    -0.226690  -2.644863  3.124094
H    -1.551514  -2.746060  1.991948
H    -1.526112  -0.998568  4.550304
H    -2.444351  -2.435441  4.205153
H    -2.773194  0.376425  3.012432
H    -3.908702  -0.548477  3.981904
H    -4.159088  -2.026003  2.032860
H    -4.347131  -0.491697  1.524430
O    1.232564  -0.785221  4.407629
H    0.275570  -0.866388  4.637535
Ca    3.185948  0.783814  1.012695
