25
Energy: -32069.9672629 eV PBE+vdW (tier 2 basis)
N    0.568864  0.049656  0.234924
C    -0.012641  0.073541  1.631186
C    0.996537  0.741613  2.549888
O    2.028059  1.298788  2.086645
H    0.845785  -0.924459  0.052019
H    -0.204609  0.198451  -0.422847
H    -0.892349  0.741307  1.612465
C    -0.478557  -1.323133  2.090725
C    -1.314968  -1.357012  3.386061
C    -2.141998  -2.651623  3.527909
C    -3.348640  -2.747823  2.587104
N    -2.954100  -2.856876  1.167111
H    0.392344  -1.993568  2.180485
H    -1.140200  -1.721781  1.295393
H    -2.008990  -0.497892  3.412387
H    -0.671606  -1.301526  4.287797
H    -2.510625  -2.709752  4.561032
H    -1.484758  -3.525985  3.394202
H    -3.967782  -1.844875  2.694897
H    -3.973881  -3.593283  2.919918
H    -2.654946  -3.812570  0.961022
H    -3.763574  -2.687917  0.568273
O    0.813873  0.774299  3.833280
H    0.029076  0.238751  4.110728
Ca    2.511839  1.511845  0.045434
