25
Energy: -32070.2655416 eV PBE+vdW (tier 2 basis)
N    -1.473404  0.426311  0.099156
C    -0.810235  0.238265  1.460805
C    0.662840  0.603627  1.294585
O    1.363451  0.880825  2.317280
H    -2.296851  -0.185857  0.005966
H    -1.780424  1.395560  -0.063519
H    -1.280006  0.942784  2.160019
C    -1.029106  -1.212942  1.936755
C    -0.550304  -1.489828  3.371625
C    -1.100457  -2.809402  3.931437
C    -0.581051  -4.076539  3.239998
N    -1.173436  -5.252886  3.846939
H    -0.560091  -1.904070  1.218632
H    -2.117293  -1.393709  1.896251
H    -0.875684  -0.665801  4.024414
H    0.549668  -1.497079  3.408730
H    -2.200497  -2.809517  3.894836
H    -0.835307  -2.853615  4.998492
H    0.531088  -4.066867  3.262638
H    -0.869734  -4.082731  2.176565
H    -1.018187  -6.106961  3.316428
H    -0.881930  -5.403537  4.811616
O    1.180296  0.596145  0.117752
H    -0.787395  0.188996  -0.639429
Ca    3.145204  1.153957  1.055174
