25
Energy: -32071.5378275 eV PBE+vdW (tier 2 basis)
N    -1.143977  1.114971  0.620641
C    -0.837331  0.072302  1.675518
C    0.596799  0.267310  2.212250
O    1.400396  0.957136  1.443174
H    -1.748489  0.683581  -0.088086
H    -1.747142  1.826599  1.048565
H    -1.520962  0.214832  2.524609
C    -1.070016  -1.345044  1.105485
C    -0.928943  -2.491234  2.128636
C    0.480351  -3.116114  2.213693
C    0.839988  -3.700340  3.574013
N    0.936487  -2.607072  4.641639
H    -0.401407  -1.520817  0.246109
H    -2.096973  -1.357229  0.709652
H    -1.646492  -3.278957  1.865688
H    -1.261104  -2.117635  3.109904
H    1.258920  -2.393664  1.930359
H    0.563265  -3.936353  1.486907
H    1.816277  -4.195156  3.539657
H    0.102804  -4.431518  3.925599
H    0.144897  -2.638476  5.293044
H    1.788844  -2.707497  5.204213
O    0.932905  -0.224603  3.286927
H    0.943410  -1.650415  4.193140
Ca    0.933493  2.130392  -0.157335
