25
Energy: -32071.4506516 eV PBE+vdW (tier 2 basis)
N    -1.432199  1.148727  0.743149
C    -0.838259  0.049973  1.596653
C    0.614256  0.437688  1.957222
O    1.214376  1.195041  1.071413
H    -2.231230  0.760261  0.229653
H    -1.857231  1.840330  1.372565
H    -1.419677  -0.042312  2.524857
C    -0.880790  -1.290594  0.821995
C    -0.912204  -2.602943  1.630874
C    0.350127  -2.985046  2.436912
C    0.234599  -2.683682  3.938920
N    1.551483  -2.194850  4.499852
H    -0.049189  -1.324315  0.098014
H    -1.806013  -1.287497  0.222848
H    -1.104040  -3.398196  0.899026
H    -1.795003  -2.603432  2.288866
H    1.225886  -2.468713  2.016921
H    0.546632  -4.056900  2.308654
H    -0.067444  -3.564826  4.515918
H    -0.476332  -1.876677  4.145327
H    1.743324  -1.275239  4.040853
H    1.508553  -2.054685  5.517325
O    1.144653  0.019077  2.979817
H    2.322146  -2.846884  4.307178
Ca    0.381576  2.230695  -0.475812
