25
Energy: -32071.3044923 eV PBE+vdW (tier 2 basis)
N    2.469686  -2.471827  2.083916
C    1.072213  -2.134783  1.799972
C    1.131251  -1.833904  0.303501
O    0.836746  -2.758051  -0.542768
H    2.561628  -3.234913  2.750012
H    3.008790  -1.670494  2.407366
H    0.475572  -3.051668  1.899736
C    0.466410  -1.023433  2.673507
C    -1.015365  -0.734689  2.381116
C    -1.778837  -0.036857  3.523650
C    -1.274019  1.367560  3.830309
N    -2.113479  2.009970  4.930294
H    1.077267  -0.113681  2.560858
H    0.584032  -1.361694  3.715522
H    -1.541314  -1.682508  2.193461
H    -1.117024  -0.143742  1.457240
H    -1.712794  -0.658573  4.431925
H    -2.844613  0.014059  3.248412
H    -1.347355  2.036562  2.963578
H    -0.240526  1.381351  4.196834
H    -1.791870  2.962593  5.153137
H    -3.104149  2.072424  4.654344
O    1.623887  -0.721284  -0.127333
H    -2.075143  1.457737  5.799156
Ca    1.999006  -1.723155  -2.010743
