25
Energy: -32070.527541 eV PBE+vdW (tier 2 basis)
N    0.474937  -0.317959  0.210952
C    0.287087  0.058844  1.668487
C    1.643714  0.091459  2.345395
O    1.751383  0.624321  3.498241
H    -0.387318  -0.788275  -0.118145
H    0.654709  0.492793  -0.395494
H    -0.165936  1.058229  1.698167
C    -0.651361  -0.968556  2.347246
C    -1.998746  -1.131149  1.636286
C    -2.838872  0.140460  1.485354
C    -4.311802  -0.202788  1.184553
N    -4.856063  -1.040007  2.251559
H    -0.808791  -0.607756  3.373249
H    -0.132805  -1.938453  2.421713
H    -2.598221  -1.840555  2.231570
H    -1.882816  -1.643686  0.658795
H    -2.463096  0.808708  0.690285
H    -2.797588  0.718219  2.424437
H    -4.366535  -0.766522  0.241614
H    -4.866830  0.736279  1.019885
H    -5.219354  -0.481372  3.023225
H    -5.622123  -1.622717  1.919817
O    2.657554  -0.466230  1.782867
H    1.275208  -0.965229  0.119259
Ca    3.856698  0.054176  3.589882
