25
Energy: -32069.8528201 eV PBE+vdW (tier 2 basis)
N    -0.423889  -1.040852  -0.268733
C    0.130494  -0.567361  1.050388
C    1.458504  0.117561  0.789905
O    2.070521  -0.056863  -0.294340
H    -0.933691  -1.914904  -0.090793
H    -1.157600  -0.385701  -0.565854
H    -0.558561  0.162531  1.502513
C    0.299590  -1.762301  2.031606
C    0.893811  -1.446202  3.409045
C    0.191292  -0.344085  4.213362
C    0.565738  -0.411411  5.710902
N    0.161822  -1.696348  6.264598
H    0.908882  -2.537948  1.536705
H    -0.712243  -2.178433  2.164304
H    1.976046  -1.252457  3.334968
H    0.804790  -2.363093  4.013370
H    -0.902914  -0.443809  4.114949
H    0.416367  0.689447  3.863884
H    0.118533  0.456272  6.224444
H    1.655606  -0.310079  5.814762
H    0.773096  -2.005856  7.016811
H    -0.792381  -1.687489  6.621574
O    2.011655  0.865227  1.693076
H    1.481621  0.898895  2.528290
Ca    1.343002  -1.147205  -1.963838
