30
Energy: -113701.8860928  eV PBE+vdW (tier 2 basis)
C    -0.030772  0.405559  -0.225387
C    -0.113032  -0.006397  1.206946
O    0.934450  -0.299676  1.864783
H    0.189092  1.482530  -0.301441
H    -0.951491  0.199324  -0.780594
H    0.808524  -0.124495  -0.690807
N    -1.308854  -0.053686  1.836973
C    -2.329434  0.984702  1.708894
C    -1.729034  2.303235  2.266885
O    -0.617219  2.278282  2.901870
H    -1.278921  -0.491924  2.758729
H    -2.561889  1.132444  0.644087
C    -3.622480  0.559604  2.446311
C    -3.469438  0.368432  3.960656
S    -5.050526  0.225510  4.845462
C    -5.597958  -1.437343  4.370536
H    -3.973547  -0.365231  1.968211
H    -4.400568  1.310628  2.265644
H    -2.994920  1.249766  4.421411
H    -2.850095  -0.511222  4.210740
H    -6.519090  -1.608603  4.940009
H    -4.863050  -2.196365  4.665557
H    -5.835053  -1.514483  3.303625
N    -2.358701  3.451618  2.092088
C    -3.608658  3.730479  1.377055
H    -1.908765  4.252709  2.536417
H    -4.457769  3.739899  2.072333
H    -3.785899  2.991246  0.590764
H    -3.522231  4.717182  0.910744
Sr    1.367543  1.272772  3.514089
