30
Energy: -113702.2252999  eV PBE+vdW (tier 2 basis)
C    -0.586049  1.357478  -0.607041
C    -0.662892  1.235223  0.876029
O    0.302728  1.670658  1.615675
H    0.299743  0.816620  -0.968396
H    -0.457258  2.412833  -0.883156
H    -1.474757  0.960770  -1.107464
N    -1.716421  0.680069  1.436113
C    -1.924617  0.460949  2.861188
C    -3.137218  -0.518385  2.896665
O    -3.883082  -0.540676  1.918506
H    -2.526859  0.332449  0.891346
H    -1.023598  -0.008989  3.287242
C    -2.248753  1.795821  3.587413
C    -1.892660  1.849435  5.067526
S    -0.096343  1.568737  5.373876
C    0.122445  2.197924  7.065745
H    -3.325133  2.001794  3.490042
H    -1.743710  2.619610  3.060675
H    -2.426605  1.090045  5.653854
H    -2.143076  2.834816  5.479611
H    1.169677  2.031353  7.341634
H    -0.514760  1.611491  7.736723
H    -0.125528  3.262228  7.126630
N    -3.310567  -1.228076  4.025487
C    -4.429961  -2.156284  4.205032
H    -2.556087  -1.260131  4.702653
H    -5.267776  -1.817584  3.589360
H    -4.728303  -2.163782  5.258213
H    -4.151758  -3.172496  3.897222
Sr    1.615090  2.496797  3.172181
