30
Energy: -113703.3740576  eV PBE+vdW (tier 2 basis)
C    -0.349131  -1.263648  -0.237652
C    -0.669061  -0.184853  0.746919
O    0.155531  0.129985  1.649246
H    -1.123917  -1.411978  -0.996795
H    -0.202639  -2.204851  0.311046
H    0.602904  -1.031712  -0.732490
N    -1.867167  0.424548  0.642568
C    -2.451077  1.427127  1.555642
C    -1.731296  2.786238  1.413589
O    -0.579247  2.981740  1.889784
H    -2.464888  0.106289  -0.114709
H    -3.471343  1.573837  1.178726
C    -2.569796  0.876702  3.007333
C    -2.544662  1.909403  4.150090
S    -1.023027  1.670730  5.144641
C    -1.072540  3.062697  6.309017
H    -1.788862  0.122798  3.169709
H    -3.511043  0.315683  3.052186
H    -3.388764  1.759613  4.832956
H    -2.581122  2.948052  3.796095
H    -1.054016  4.027095  5.790693
H    -0.195180  2.964620  6.958438
H    -1.974276  2.972434  6.924954
N    -2.394499  3.736146  0.761826
C    -1.890930  5.082409  0.490814
H    -3.318386  3.510711  0.402560
H    -1.681607  5.195937  -0.580351
H    -0.973328  5.243340  1.060821
H    -2.645837  5.819294  0.787185
Sr    1.058208  1.766613  3.011160
