30
Energy: -113701.9081275  eV PBE+vdW (tier 2 basis)
C    -0.057274  0.558719  -0.047300
C    -0.080903  0.102864  1.373703
O    0.990226  -0.232468  1.972317
H    0.208406  1.626499  -0.103179
H    -1.014342  0.410691  -0.557477
H    0.731312  0.007929  -0.573925
N    -1.246553  0.060673  2.058404
C    -2.245715  1.127405  2.017531
C    -1.577531  2.418810  2.554796
O    -0.455252  2.344397  3.166202
H    -1.186846  -0.417488  2.958808
H    -2.560219  1.290883  0.976088
C    -3.463314  0.726491  2.873504
C    -4.248667  -0.451323  2.295647
S    -5.527072  -0.901951  3.510664
C    -6.348641  -2.259008  2.634932
H    -4.132349  1.589389  2.985747
H    -3.112870  0.486491  3.892580
H    -3.592124  -1.315407  2.107005
H    -4.714931  -0.165863  1.339542
H    -7.146441  -2.600265  3.304492
H    -5.660309  -3.092350  2.452037
H    -6.798695  -1.912254  1.697590
N    -2.165330  3.591163  2.394896
C    -3.425480  3.913860  1.718172
H    -1.678318  4.374463  2.832180
H    -3.295310  4.857357  1.177684
H    -4.234204  4.033461  2.450402
H    -3.697742  3.136188  0.999725
Sr    1.533126  1.271763  3.651383
