30
Energy: -113702.8722953  eV PBE+vdW (tier 2 basis)
C    1.291375  0.282037  0.853417
C    0.722945  -0.321986  2.095759
O    1.478410  -0.562953  3.097158
H    2.030871  -0.403954  0.417816
H    1.827588  1.203240  1.118113
H    0.525600  0.503918  0.103263
N    -0.580426  -0.594807  2.120135
C    -1.353180  -1.002458  3.305662
C    -1.071431  -2.479211  3.671252
O    -0.062191  -2.756941  4.394992
H    -1.168854  -0.214258  1.334140
H    -0.972225  -0.425942  4.165345
C    -2.846122  -0.663709  3.120487
C    -3.118895  0.756478  2.600720
S    -2.995283  0.744512  0.770304
C    -2.931203  2.515805  0.393384
H    -3.335948  -0.801670  4.094029
H    -3.336899  -1.367166  2.426745
H    -2.409307  1.486024  3.019379
H    -4.129884  1.070743  2.886461
H    -2.861110  2.593120  -0.697450
H    -2.059575  2.996058  0.852088
H    -3.856939  3.000051  0.723512
N    -1.880600  -3.422428  3.226796
C    -1.734441  -4.855135  3.488716
H    -2.668226  -3.132444  2.652588
H    -1.175117  -5.337289  2.676339
H    -2.730491  -5.304007  3.550871
H    -1.207221  -5.001447  4.434964
Sr    2.019778  -1.903180  4.819015
