30
Energy: -113703.3435702  eV PBE+vdW (tier 2 basis)
C    -0.363091  -0.349425  -0.489601
C    -0.427777  -0.441158  1.003321
O    0.478373  -1.033682  1.647230
H    -1.214634  0.171052  -0.939559
H    -0.301614  -1.364477  -0.904711
H    0.563543  0.166960  -0.774923
N    -1.483184  0.132328  1.613850
C    -1.846205  0.189281  3.045478
C    -0.742402  0.788071  3.942380
O    0.258722  0.129511  4.335272
H    -2.150954  0.576720  0.990117
H    -2.654008  0.932643  3.060915
C    -2.512866  -1.099064  3.615106
C    -2.058369  -2.502404  3.201963
S    -0.655391  -3.326785  4.041614
C    -1.166479  -3.362764  5.783138
H    -3.565324  -1.042887  3.298907
H    -2.544483  -1.002267  4.710017
H    -1.809905  -2.565249  2.134850
H    -2.903370  -3.187772  3.353690
H    -2.133235  -3.873825  5.857895
H    -1.221051  -2.361949  6.223597
H    -0.417517  -3.960941  6.314959
N    -0.931933  2.044715  4.332731
C    -0.025503  2.778836  5.216984
H    -1.750786  2.539821  3.991742
H    0.380799  2.099385  5.972267
H    -0.587730  3.577645  5.708921
H    0.799769  3.221703  4.644181
Sr    1.630600  -1.571023  3.566671
