30
Energy: -113702.0203806  eV PBE+vdW (tier 2 basis)
C    0.233200  -0.292549  -0.060373
C    0.117807  -0.216913  1.426107
O    1.160438  0.044194  2.141713
H    0.629458  0.654817  -0.450076
H    -0.724663  -0.505086  -0.544981
H    0.949892  -1.081650  -0.327169
N    -1.049142  -0.418341  1.991808
C    -1.379807  -0.462237  3.410214
C    -2.794259  -1.143758  3.375389
O    -3.364854  -1.214747  2.283687
H    -1.905073  -0.669882  1.446140
H    -0.653167  -1.102262  3.933824
C    -1.442299  0.950044  4.073596
C    -0.655766  1.111461  5.383492
S    0.984583  1.934775  5.338137
C    0.576150  3.648722  4.884246
H    -2.492974  1.191741  4.285577
H    -1.127271  1.697186  3.334205
H    -0.447061  0.150235  5.870793
H    -1.222016  1.706617  6.112068
H    0.100580  3.716282  3.900430
H    1.513176  4.217896  4.890797
H    -0.082276  4.059090  5.658455
N    -3.338648  -1.594438  4.517853
C    -2.779855  -1.615449  5.862036
H    -4.274947  -1.974763  4.392932
H    -2.906118  -0.654607  6.381865
H    -1.718511  -1.894919  5.848990
H    -3.304292  -2.380769  6.442434
Sr    2.818647  0.774049  3.368859
