30
Energy: -113701.9345884  eV PBE+vdW (tier 2 basis)
C    -0.849808  -0.293818  -0.506576
C    -0.618171  0.133853  0.901177
O    0.452102  0.742611  1.230589
H    -0.957793  -1.385379  -0.592132
H    -0.016274  0.033771  -1.133333
H    -1.793993  0.150201  -0.862455
N    -1.534821  -0.100422  1.869834
C    -2.278115  -1.350474  2.066707
C    -1.222888  -2.494411  2.187440
O    0.007195  -2.215527  2.374514
H    -1.381258  0.448347  2.713814
H    -2.709836  -1.256175  3.077098
C    -3.459904  -1.614608  1.111221
C    -4.578065  -0.567278  1.172257
S    -4.072216  1.078109  0.554213
C    -5.673728  1.725321  0.001906
H    -3.921191  -2.570459  1.409145
H    -3.112582  -1.744213  0.078485
H    -4.973701  -0.483481  2.195968
H    -5.397480  -0.923137  0.533846
H    -5.472326  2.730352  -0.385768
H    -6.372685  1.803847  0.841842
H    -6.094464  1.108367  -0.800243
N    -1.635548  -3.746317  2.142854
C    -0.772140  -4.916251  2.332689
H    -2.624323  -3.912273  1.975160
H    -1.395790  -5.813032  2.298281
H    -0.269773  -4.864217  3.305517
H    -0.021387  -4.970823  1.535390
Sr    1.763714  -0.698869  2.459169
