30
Energy: -113702.8726839  eV PBE+vdW (tier 2 basis)
C    -0.505155  -1.018925  0.648383
C    -0.403143  -0.398470  2.002447
O    0.652451  0.223825  2.353194
H    -0.457676  -0.219119  -0.104978
H    -1.430631  -1.585779  0.504976
H    0.357436  -1.673964  0.472422
N    -1.449705  -0.495493  2.827374
C    -1.546480  0.131914  4.151819
C    -0.755790  -0.700728  5.191062
O    0.493203  -0.459707  5.316074
H    -2.224372  -1.119884  2.567569
H    -0.978125  1.070201  4.088508
C    -3.008231  0.507323  4.525063
C    -4.159694  -0.284134  3.889354
S    -3.907450  -2.094708  3.987707
C    -5.582079  -2.727497  3.703308
H    -3.153849  1.558263  4.241155
H    -3.094281  0.478651  5.619458
H    -4.304322  0.001462  2.838078
H    -5.084179  -0.031901  4.423962
H    -6.253850  -2.394149  4.501388
H    -5.502936  -3.819953  3.722001
H    -5.947173  -2.406664  2.721972
N    -1.369697  -1.620025  5.903743
C    -0.731277  -2.470807  6.906920
H    -2.359073  -1.816135  5.676554
H    0.143397  -1.961578  7.319783
H    -0.423041  -3.425284  6.459855
H    -1.452365  -2.670091  7.705886
Sr    2.163090  0.433356  4.035966
