30
Energy: -113702.6389169  eV PBE+vdW (tier 2 basis)
C    0.015939  1.754788  1.595740
C    0.094071  0.473269  2.361724
O    0.884007  -0.447527  1.979681
H    1.010212  2.219837  1.559992
H    -0.698806  2.470723  2.013591
H    -0.265604  1.527055  0.558208
N    -0.678443  0.343176  3.446126
C    -0.979133  -0.853189  4.257798
C    0.194845  -1.363202  5.095366
O    1.244309  -1.841584  4.554003
H    -1.339183  1.102897  3.606082
H    -1.745040  -0.489651  4.952231
C    -1.637559  -2.002703  3.461125
C    -2.877691  -1.545460  2.685242
S    -3.958270  -0.538077  3.758001
C    -5.358660  -0.240095  2.646937
H    -1.914051  -2.781592  4.187166
H    -0.920939  -2.458746  2.760907
H    -3.427441  -2.430357  2.337953
H    -2.592648  -0.961252  1.797359
H    -5.044010  0.297778  1.745615
H    -6.061575  0.383271  3.210668
H    -5.848773  -1.184478  2.385676
N    0.078953  -1.366550  6.414380
C    -1.032907  -0.880971  7.245006
H    0.871363  -1.780703  6.905887
H    -1.206723  0.189675  7.086214
H    -1.952181  -1.446255  7.049283
H    -0.754692  -1.029497  8.291789
Sr    2.340685  -2.061091  2.573138
