30
Energy: -113702.1286609  eV PBE+vdW (tier 2 basis)
C    -1.402515  -0.352216  -0.068697
C    -0.550090  -0.127530  1.133565
O    0.718114  -0.202863  1.066480
H    -1.256861  0.451163  -0.805699
H    -2.466639  -0.447562  0.169702
H    -1.054155  -1.276480  -0.551346
N    -1.119072  0.161840  2.327126
C    -2.178674  1.154369  2.479695
C    -1.570296  2.542221  2.206994
O    -0.299860  2.667388  2.068691
H    -0.475298  0.108868  3.118307
H    -2.958802  0.946295  1.721064
C    -2.858615  0.999462  3.855189
C    -3.754406  -0.242015  3.897178
S    -5.010170  -0.124603  2.578926
C    -5.755382  -1.775334  2.647930
H    -3.455674  1.893357  4.074865
H    -2.092971  0.943524  4.645533
H    -4.246238  -0.296658  4.877029
H    -3.167325  -1.162388  3.760716
H    -5.013963  -2.555817  2.443325
H    -6.524390  -1.792138  1.867745
H    -6.231403  -1.937673  3.621050
N    -2.347896  3.605033  2.086024
C    -3.811777  3.697511  2.114883
H    -1.846041  4.482088  1.944934
H    -4.274511  2.727666  1.911889
H    -4.154342  4.069925  3.088596
H    -4.125596  4.403375  1.338346
Sr    1.766249  1.817266  1.524888
