30
Energy: -113701.9704716  eV PBE+vdW (tier 2 basis)
C    0.317154  2.016969  1.644690
C    0.006256  0.734487  2.342392
O    0.628773  0.395718  3.398439
H    -0.241578  2.848185  2.103722
H    0.077763  1.987312  0.576792
H    1.382955  2.235344  1.779593
N    -0.962970  -0.081160  1.870092
C    -2.267253  0.397452  1.414509
C    -2.989475  1.017303  2.638610
O    -2.497664  0.902957  3.812569
H    -0.988242  -1.001093  2.313255
H    -2.119541  1.184334  0.658633
C    -3.062612  -0.771207  0.788420
C    -2.414905  -1.319197  -0.492806
S    -3.197853  -2.838306  -1.092322
C    -4.720795  -2.203118  -1.844367
H    -4.083750  -0.429026  0.570523
H    -3.166156  -1.579560  1.530683
H    -2.411920  -0.554928  -1.285590
H    -1.367455  -1.599718  -0.312102
H    -5.414847  -1.783066  -1.106508
H    -4.495668  -1.472447  -2.630620
H    -5.201344  -3.073496  -2.306360
N    -4.129941  1.653289  2.434701
C    -4.950803  2.257156  3.488892
H    -4.472182  1.720301  1.479404
H    -5.848786  2.676336  3.028184
H    -4.399633  3.060972  3.991514
H    -5.245226  1.499170  4.223946
Sr    -0.754326  0.441421  5.256901
