30
Energy: -113702.1551814  eV PBE+vdW (tier 2 basis)
C    -0.262231  1.211150  -0.526240
C    -0.323456  0.409756  0.729483
O    0.661680  -0.301720  1.105469
H    0.433219  2.056272  -0.413331
H    -1.239701  1.583180  -0.848180
H    0.160740  0.568112  -1.310507
N    -1.436676  0.430685  1.498667
C    -2.134955  1.664978  1.852689
C    -1.212014  2.479634  2.772418
O    -0.143885  1.946440  3.244724
H    -1.448778  -0.283688  2.228336
H    -2.339455  2.240329  0.924715
C    -3.520012  1.343644  2.436886
C    -4.459707  0.808219  1.339903
S    -4.604629  1.886223  -0.116458
C    -5.810176  3.121032  0.450460
H    -3.946777  2.247735  2.888408
H    -3.428758  0.610704  3.256047
H    -5.457109  0.624437  1.759509
H    -4.096690  -0.153223  0.951814
H    -5.941017  3.818899  -0.384412
H    -5.468801  3.681052  1.328888
H    -6.771618  2.638915  0.660396
N    -1.494335  3.740025  3.060916
C    -2.590615  4.575249  2.562093
H    -0.849703  4.182514  3.716047
H    -2.197329  5.578205  2.364432
H    -3.388872  4.651845  3.311442
H    -2.994194  4.170277  1.629538
Sr    1.579393  0.427055  3.109179
