30
Energy: -113702.0056876  eV PBE+vdW (tier 2 basis)
C    -0.518716  -0.130957  -0.362356
C    -0.300526  -0.269981  1.106160
O    0.847698  -0.550509  1.574836
H    -0.004897  0.762910  -0.746650
H    -1.575260  -0.092496  -0.641620
H    -0.043875  -0.992096  -0.853155
N    -1.325976  -0.082250  1.969091
C    -2.262909  1.041301  1.868214
C    -1.418457  2.333501  1.878067
O    -0.255931  2.309830  2.425535
H    -1.115921  -0.368938  2.926307
H    -2.865867  0.962082  0.946366
C    -3.254840  0.960079  3.053669
C    -4.587259  1.692379  2.845468
S    -5.475335  1.272701  1.315071
C    -6.075211  -0.402957  1.670279
H    -2.775005  1.322204  3.977910
H    -3.459759  -0.111072  3.199403
H    -4.454298  2.782100  2.823230
H    -5.237576  1.487124  3.706675
H    -6.684596  -0.686517  0.804556
H    -6.713055  -0.397575  2.561639
H    -5.262982  -1.130581  1.778769
N    -1.854388  3.459134  1.341218
C    -3.048201  3.729209  0.534303
H    -1.225313  4.252239  1.476843
H    -2.733190  4.169946  -0.419065
H    -3.695801  4.444625  1.055145
H    -3.610477  2.810662  0.339191
Sr    1.722633  1.203460  2.823471
