30
Energy: -113702.8958292  eV PBE+vdW (tier 2 basis)
C    0.051420  -0.035994  0.560336
C    -0.135752  0.186132  2.025352
O    0.736243  0.817887  2.699857
H    1.016428  -0.527596  0.381629
H    0.095207  0.943244  0.062287
H    -0.746983  -0.630527  0.104521
N    -1.247147  -0.283752  2.607268
C    -1.670761  -0.029748  3.992808
C    -0.881136  -0.929282  4.974530
O    0.268834  -0.511483  5.358819
H    -1.897318  -0.795054  2.015640
H    -1.315222  0.982254  4.238268
C    -3.215022  0.028132  4.104465
C    -4.086967  -1.022583  3.399288
S    -4.140909  -2.716962  4.080002
C    -5.237270  -2.495429  5.511631
H    -3.505422  1.006777  3.692008
H    -3.469729  0.075187  5.172637
H    -3.824563  -1.151162  2.337662
H    -5.119254  -0.647320  3.381821
H    -4.828012  -1.796339  6.249801
H    -5.334803  -3.485643  5.971256
H    -6.225702  -2.164677  5.173750
N    -1.379351  -2.068019  5.383966
C    -0.696366  -2.975597  6.303565
H    -2.315842  -2.372158  4.991108
H    0.201836  -3.400354  5.837370
H    -1.384231  -3.787992  6.553770
H    -0.407383  -2.447771  7.219864
Sr    1.929174  0.855831  4.639718
