30
Energy: -113701.8734945  eV PBE+vdW (tier 2 basis)
C    0.068185  0.795255  -0.023990
C    -0.033293  0.110944  1.298917
O    0.976778  -0.463556  1.816242
H    0.460545  1.817157  0.100602
H    -0.891286  0.853197  -0.547840
H    0.792609  0.248834  -0.639567
N    -1.201597  0.108909  1.979600
C    -2.050945  1.290615  2.119488
C    -1.247416  2.338399  2.938823
O    -0.130400  2.027855  3.475699
H    -1.218981  -0.523952  2.780676
H    -2.243106  1.710568  1.119856
C    -3.406205  0.883266  2.755555
C    -4.543885  1.904035  2.612605
S    -6.180096  1.191619  2.960341
C    -6.197299  1.176441  4.773519
H    -3.254157  0.626154  3.815712
H    -3.716905  -0.037997  2.241835
H    -4.615158  2.254792  1.571124
H    -4.410148  2.784212  3.261111
H    -7.193821  0.811447  5.049041
H    -6.075920  2.187907  5.180597
H    -5.454200  0.491148  5.198189
N    -1.749365  3.552416  3.061246
C    -1.132348  4.642191  3.823397
H    -2.645222  3.738150  2.614131
H    -0.174001  4.929451  3.374280
H    -0.972303  4.337611  4.863993
H    -1.806681  5.501965  3.800863
Sr    1.721451  0.659389  3.697475
