30
Energy: -113702.1295361  eV PBE+vdW (tier 2 basis)
C    0.215508  -0.608671  0.201854
C    -0.042070  -0.340585  1.647013
O    0.716949  -0.873437  2.543364
H    1.240048  -0.305641  -0.052804
H    -0.487145  -0.087203  -0.455251
H    0.142252  -1.689741  0.018236
N    -1.046529  0.440165  1.987239
C    -1.574601  0.719872  3.320187
C    -3.108372  0.875562  3.043809
O    -3.450393  1.102020  1.881335
H    -1.741765  0.757578  1.280771
H    -1.359653  -0.130675  3.982852
C    -1.039257  2.040490  3.911412
C    0.470491  2.176546  4.093247
S    1.295787  1.117453  5.340613
C    0.540663  1.559626  6.929567
H    -1.554291  2.234937  4.861912
H    -1.344009  2.859794  3.240435
H    0.720623  3.206403  4.382301
H    1.020808  1.971321  3.164853
H    1.104742  1.033102  7.707387
H    -0.512820  1.267483  6.970130
H    0.657119  2.639073  7.078079
N    -3.975207  0.790655  4.068435
C    -3.718881  0.541340  5.479513
H    -4.940808  0.964774  3.793536
H    -3.626868  1.475649  6.052775
H    -2.809460  -0.056445  5.612841
H    -4.551615  -0.034705  5.897405
Sr    1.919611  -1.487607  4.272415
