30
Energy: -113702.0328907  eV PBE+vdW (tier 2 basis)
C    0.168648  -0.182992  0.273788
C    0.007125  -0.178876  1.760572
O    1.039456  -0.359287  2.513111
H    0.957563  0.519262  -0.025215
H    -0.756933  0.066539  -0.254094
H    0.490334  -1.186533  -0.040423
N    -1.196792  0.010430  2.258631
C    -1.688461  0.005718  3.636947
C    -3.130654  0.591921  3.470456
O    -3.409289  1.123292  2.389810
H    -1.970988  0.342950  1.644441
H    -1.750200  -1.037372  3.983932
C    -0.827337  0.791383  4.651934
C    -0.373873  2.182625  4.188491
S    1.283795  2.515168  4.899842
C    1.673009  4.186572  4.297988
H    0.040420  0.159804  4.902479
H    -1.384968  0.877137  5.591985
H    -1.043917  2.971960  4.550245
H    -0.316873  2.265060  3.096316
H    2.670749  4.438281  4.675114
H    0.947566  4.883464  4.732238
H    1.651470  4.241399  3.204769
N    -3.995192  0.500207  4.493372
C    -3.863803  -0.202023  5.766332
H    -4.896514  0.930858  4.293180
H    -4.834062  -0.636715  6.029386
H    -3.560711  0.473471  6.578791
H    -3.147665  -1.027885  5.692759
Sr    2.804446  0.288108  3.675536
