30
Energy: -113702.8529658  eV PBE+vdW (tier 2 basis)
C    0.078799  -0.042683  0.743841
C    -0.514223  -0.291540  2.088436
O    0.181403  -0.709557  3.055825
H    0.755845  0.823133  0.784423
H    -0.667208  0.110005  -0.041563
H    0.703126  -0.909320  0.486383
N    -1.839833  -0.060278  2.310852
C    -2.576616  1.113314  1.843162
C    -1.760809  2.390245  2.170463
O    -0.944651  2.382263  3.139216
H    -2.158851  -0.400227  3.220330
H    -2.741270  1.046717  0.757681
C    -3.955226  1.147758  2.549560
C    -4.001106  1.631361  4.005438
S    -3.090162  0.714150  5.313105
C    -3.993923  -0.856433  5.470301
H    -4.404480  0.149235  2.447964
H    -4.613086  1.822410  1.982085
H    -5.046011  1.653514  4.342758
H    -3.624280  2.658597  4.105552
H    -3.514432  -1.412171  6.284048
H    -3.967270  -1.453600  4.552639
H    -5.027971  -0.633276  5.755542
N    -1.991200  3.462512  1.429365
C    -1.380257  4.780319  1.617003
H    -2.641346  3.364634  0.651992
H    -2.164036  5.530310  1.776073
H    -0.804087  5.049715  0.723779
H    -0.718814  4.748364  2.485200
Sr    -0.104379  0.899744  4.781374
