30
Energy: -113701.9461327  eV PBE+vdW (tier 2 basis)
C    -0.353866  0.641099  0.022413
C    -0.770966  0.863434  1.438680
O    -0.586651  1.989404  2.001979
H    -1.105196  1.050175  -0.671079
H    -0.193996  -0.414748  -0.217457
H    0.573669  1.200875  -0.150339
N    -1.359699  -0.126924  2.145915
C    -2.410519  -0.981709  1.602719
C    -3.704954  -0.111128  1.495629
O    -3.663122  1.141182  1.739545
H    -1.445976  0.066173  3.144874
H    -2.131608  -1.260704  0.575442
C    -2.596136  -2.265588  2.435287
C    -3.007694  -2.027932  3.894820
S    -3.704000  -3.491098  4.716967
C    -2.229852  -4.519423  4.962217
H    -1.655948  -2.830820  2.381181
H    -3.347573  -2.907060  1.950827
H    -3.821496  -1.286566  3.958176
H    -2.166077  -1.647985  4.497743
H    -2.580135  -5.392960  5.524593
H    -1.479084  -3.996263  5.566731
H    -1.798929  -4.868898  4.017364
N    -4.814552  -0.720276  1.125869
C    -6.127983  -0.101355  0.941917
H    -4.762665  -1.727448  0.982796
H    -6.029337  0.984751  0.989311
H    -6.813782  -0.445441  1.726299
H    -6.529346  -0.392121  -0.035483
Sr    -2.587631  3.080625  2.392167
