30
Energy: -113702.2257933  eV PBE+vdW (tier 2 basis)
C    0.197859  0.508557  0.364168
C    -0.161884  -0.580633  1.318755
O    0.729171  -1.443447  1.672575
H    1.037111  1.090828  0.767847
H    -0.639879  1.181621  0.157682
H    0.538391  0.061105  -0.580084
N    -1.390662  -0.645381  1.787988
C    -2.006627  -1.691601  2.599352
C    -3.485109  -1.691437  2.074748
O    -3.877215  -0.682805  1.485457
H    -2.143445  -0.037047  1.405036
H    -1.506564  -2.651576  2.401734
C    -2.011797  -1.360368  4.107100
C    -0.668561  -1.079998  4.776642
S    0.512939  -2.466804  4.965509
C    -0.267995  -3.618004  6.129316
H    -2.545278  -2.161776  4.637562
H    -2.623249  -0.455121  4.252970
H    -0.827293  -0.699933  5.795078
H    -0.093813  -0.309842  4.244707
H    0.465824  -4.403269  6.342050
H    -1.174412  -4.061329  5.707139
H    -0.487323  -3.076240  7.056098
N    -4.228148  -2.775030  2.344860
C    -5.640536  -2.890134  1.975675
H    -3.793998  -3.567671  2.804959
H    -6.251503  -3.065523  2.868901
H    -5.782839  -3.716524  1.269234
H    -5.948656  -1.953800  1.503331
Sr    2.056697  -2.932771  2.586978
