28
Energy: -244829.221344 eV PBE+vdW (tier 2 basis)
C    -0.17101  -0.90485  0.22602
C    -0.34338  -0.18669  1.53955
O    0.22369  -0.57067  2.57313
H    0.89740  -1.07161  0.04814
H    -0.60719  -0.37766  -0.62999
H    -0.64389  -1.89291  0.30858
N    -1.15918  0.90879  1.53090
C    -1.66590  1.62236  2.70851
C    -0.61312  2.40316  3.51427
O    -0.89851  3.56671  3.93840
H    -1.57085  1.17350  0.64377
H    -2.31978  2.40317  2.29984
C    -2.52241  0.72474  3.66415
C    -3.98947  1.19128  3.78909
C    -4.01720  2.61617  4.29364
O    -4.16470  3.57287  3.45201
O    -3.73558  2.84906  5.52022
H    -2.07102  0.69638  4.66429
H    -2.49965  -0.30403  3.28676
H    -4.50265  1.13688  2.82095
H    -4.50694  0.53907  4.50389
N    0.53545  1.81138  3.78735
C    1.58915  2.42356  4.58222
H    0.61424  0.82418  3.45631
H    1.76956  3.45297  4.25174
H    1.32390  2.43742  5.64873
H    2.50447  1.83883  4.45481
Ba    -2.68942  5.01095  4.86972
