28
Energy: -244827.828489 eV PBE+vdW (tier 2 basis)
C    0.15567  0.41182  0.30193
C    -0.03434  0.30876  1.79944
O    0.85334  0.60125  2.60333
H    0.62820  1.37172  0.06551
H    -0.77776  0.31245  -0.26464
H    0.84652  -0.37965  -0.01823
N    -1.26676  -0.12708  2.21034
C    -1.52219  -0.50070  3.58839
C    -2.43971  -1.73759  3.55377
O    -3.24753  -1.88933  2.63795
H    -1.94718  -0.48926  1.54377
H    -0.54888  -0.73590  4.04813
C    -2.20237  0.61999  4.40946
C    -1.42822  1.93760  4.34423
C    -1.86290  2.99262  5.31000
O    -1.55108  4.22733  5.08188
O    -2.51755  2.69996  6.38298
H    -2.29392  0.28790  5.45295
H    -3.22479  0.76721  4.02990
H    -1.45076  2.37958  3.33904
H    -0.35198  1.76429  4.53144
N    -2.31108  -2.58585  4.60564
C    -3.11808  -3.78644  4.75727
H    -1.55718  -2.42085  5.26229
H    -3.63196  -3.79188  5.72732
H    -2.50084  -4.69091  4.67378
H    -3.86210  -3.79072  3.95475
Ba    -2.57204  5.01548  7.10830
