28
Energy: -244828.496319 eV PBE+vdW (tier 2 basis)
C    -0.53487  1.78816  -0.61319
C    0.23023  0.72148  0.14409
O    1.16750  0.11345  -0.34981
H    0.08052  2.09224  -1.46399
H    -0.77948  2.66797  -0.00701
H    -1.47474  1.37345  -1.00570
N    -0.17686  0.39613  1.43159
C    -1.19959  0.99499  2.28661
C    -2.56901  0.95966  1.57995
O    -3.25758  1.99315  1.35693
H    0.43110  -0.29867  1.85733
H    -1.31169  0.29290  3.13090
C    -0.75987  2.34727  2.89005
C    -1.39202  2.72853  4.24833
C    -2.77759  3.29228  4.05846
O    -3.80787  2.57357  4.29750
O    -2.88906  4.44791  3.51019
H    -0.90663  3.16617  2.17366
H    0.32374  2.25442  3.03661
H    -0.76683  3.50527  4.70723
H    -1.42730  1.86615  4.92631
N    -3.03272  -0.23298  1.18213
C    -2.43593  -1.55734  1.33983
H    -3.90900  -0.18417  0.66940
H    -1.64114  -1.73240  0.60460
H    -3.22588  -2.30199  1.20175
H    -2.02516  -1.68457  2.34793
Ba    -4.88148  3.66480  2.32256
