28
Energy: -244827.433885 eV PBE+vdW (tier 2 basis)
C    -0.13772  1.15589  0.10973
C    -0.01102  0.21937  1.29770
O    1.07593  -0.12162  1.74726
H    0.87308  1.39052  -0.23309
H    -0.64148  2.09344  0.38129
H    -0.69864  0.70695  -0.72074
N    -1.17395  -0.24800  1.88057
C    -2.55995  -0.02532  1.49932
C    -3.37404  0.31756  2.77699
O    -4.08744  -0.52891  3.31385
H    -1.00316  -0.86300  2.67409
H    -2.58634  0.82643  0.80630
C    -3.20264  -1.25678  0.83737
C    -2.45167  -1.73433  -0.42141
C    -3.00705  -3.05372  -0.85919
O    -2.66645  -4.13163  -0.23452
O    -3.86400  -3.12256  -1.82057
H    -4.24593  -1.01722  0.58725
H    -3.23559  -2.05973  1.58563
H    -1.38846  -1.87394  -0.17969
H    -2.55291  -1.01498  -1.24360
N    -3.23399  1.57135  3.28440
C    -2.37798  2.65059  2.81709
H    -3.73393  1.70652  4.15829
H    -2.62129  3.55306  3.38638
H    -2.55636  2.87782  1.75705
H    -1.31067  2.43024  2.96158
Ba    -4.22991  -5.49618  -1.46087
