28
Energy: -244828.557194 eV PBE+vdW (tier 2 basis)
C    -1.03553  -0.29816  -0.09366
C    -0.64010  0.51474  1.12222
O    0.50857  0.85342  1.35336
H    -0.13420  -0.46683  -0.68804
H    -1.77747  0.21744  -0.71896
H    -1.45573  -1.27347  0.18989
N    -1.65167  0.89587  2.00173
C    -3.03544  0.43199  2.02545
C    -3.86367  1.66490  2.41759
O    -4.26434  1.86619  3.59905
H    -1.28800  1.32483  2.85091
H    -3.31101  0.17393  0.99311
C    -3.21443  -0.82538  2.89499
C    -4.57527  -1.55129  2.78392
C    -5.60882  -0.87260  3.64993
O    -6.50802  -0.12928  3.12801
O    -5.46164  -0.93783  4.92411
H    -3.00156  -0.59354  3.94783
H    -2.42620  -1.51765  2.56992
H    -4.44542  -2.57839  3.14863
H    -4.92506  -1.59445  1.74455
N    -4.09844  2.58399  1.47314
C    -3.64791  2.58441  0.08401
H    -4.54949  3.42920  1.81272
H    -4.08884  3.45129  -0.41587
H    -3.98755  1.68392  -0.44214
H    -2.55461  2.65704  0.02142
Ba    -6.22769  1.37977  5.11161
