28
Energy: -244828.661070 eV PBE+vdW (tier 2 basis)
C    -0.29855  1.73085  2.04648
C    -0.07241  0.29187  2.46470
O    0.82443  -0.05272  3.21452
H    -1.32342  2.06957  2.25453
H    -0.11336  1.85649  0.96957
H    0.40510  2.35915  2.59791
N    -0.95961  -0.66070  1.96233
C    -1.96506  -0.46683  0.93044
C    -3.23182  0.21583  1.48337
O    -3.91624  0.99459  0.76119
H    -0.65549  -1.61382  2.15010
H    -1.59847  0.21402  0.14923
C    -2.23098  -1.84515  0.26314
C    -3.52095  -2.02565  -0.54534
C    -3.84043  -0.90860  -1.51542
O    -5.06963  -0.62910  -1.73809
O    -2.90304  -0.17123  -1.97959
H    -2.23762  -2.60934  1.05583
H    -1.35626  -2.04763  -0.36867
H    -4.39726  -2.14306  0.10595
H    -3.44905  -2.96396  -1.11672
N    -3.54240  -0.05134  2.74775
C    -4.68485  0.48318  3.47191
H    -2.85345  -0.60955  3.25092
H    -4.35605  1.19540  4.24008
H    -5.23332  -0.33292  3.95661
H    -5.34513  0.99307  2.76572
Ba    -4.45444  1.75291  -1.59040
