28
Energy: -244828.808116 eV PBE+vdW (tier 2 basis)
C    -0.28416  0.22166  -0.22226
C    -0.17790  0.42623  1.25526
O    0.88856  0.91281  1.75538
H    -1.20524  0.65007  -0.63398
H    -0.30397  -0.85464  -0.44025
H    0.57713  0.68844  -0.70543
N    -1.17096  0.10945  2.09968
C    -2.61414  -0.09273  1.89788
C    -2.90354  -0.95658  0.64343
O    -2.22712  -1.95801  0.43523
H    -0.91854  0.29111  3.06944
H    -2.91827  -0.76863  2.71351
C    -3.37674  1.23584  2.12615
C    -2.95644  2.44186  1.27337
C    -1.61532  3.05152  1.65619
O    -0.84094  3.46516  0.72557
O    -1.26934  3.11005  2.88715
H    -3.25452  1.51162  3.18367
H    -4.45382  1.04422  2.00971
H    -2.93554  2.22548  0.19762
H    -3.70294  3.24009  1.41282
N    -3.94809  -0.56874  -0.13155
C    -4.42212  -1.36509  -1.25523
H    -4.48527  0.24625  0.13632
H    -4.48550  -0.75009  -2.16138
H    -5.41001  -1.79563  -1.04428
H    -3.70756  -2.17764  -1.41625
Ba    1.16028  3.33126  2.23291
