28
Energy: -244827.441058 eV PBE+vdW (tier 2 basis)
C    -0.46417  -0.81342  -0.01747
C    -0.74326  0.19664  1.08040
O    -0.26190  1.32211  1.07667
H    0.24526  -0.35968  -0.71392
H    -1.37852  -1.07425  -0.56916
H    -0.03243  -1.74453  0.37539
N    -1.59135  -0.19112  2.09965
C    -2.16738  -1.50421  2.34904
C    -3.60983  -1.31460  2.88163
O    -3.89177  -1.55698  4.05846
H    -1.69576  0.51388  2.82638
H    -2.21974  -2.03291  1.38542
C    -1.32203  -2.31804  3.34092
C    -1.82981  -3.74496  3.53898
C    -1.22370  -4.48220  4.69391
O    -1.51518  -5.72861  4.87427
O    -0.45551  -3.88656  5.53896
H    -1.32512  -1.79463  4.30508
H    -0.28452  -2.32457  2.97879
H    -1.70894  -4.37511  2.64398
H    -2.91341  -3.73132  3.74822
N    -4.53788  -0.85627  2.00172
C    -4.35809  -0.47995  0.60671
H    -5.44658  -0.69194  2.42494
H    -5.34642  -0.32987  0.16112
H    -3.86050  -1.27697  0.03781
H    -3.77902  0.44707  0.49589
Ba    -0.42440  -5.79621  7.02596
