28
Energy: -244829.355457 eV PBE+vdW (tier 2 basis)
C    -1.06010  -0.12134  -0.10545
C    -0.38536  0.14480  1.21677
O    0.85039  0.29145  1.26539
H    -0.88613  0.73575  -0.76867
H    -2.13873  -0.29677  -0.03015
H    -0.58566  -0.99419  -0.57048
N    -1.20683  0.20869  2.29183
C    -0.93838  0.39528  3.72708
C    -0.22046  1.72505  4.04317
O    0.48934  2.34184  3.21605
H    -2.18495  0.05756  2.07440
H    -1.94700  0.53917  4.14118
C    -0.41074  -0.87529  4.46659
C    0.84267  -1.59206  3.95859
C    2.08202  -0.71694  3.89874
O    2.09801  0.35745  4.59393
O    2.98930  -0.97820  3.04763
H    -0.25886  -0.59616  5.51655
H    -1.24115  -1.59646  4.45725
H    1.04684  -2.43942  4.63148
H    0.69613  -2.03328  2.96463
N    -0.45715  2.27128  5.24822
C    -1.21702  1.76392  6.38259
H    0.06861  3.12855  5.39940
H    -0.61160  1.09747  7.01233
H    -2.11369  1.22590  6.05483
H    -1.54559  2.61499  6.98788
Ba    2.80508  1.46796  2.39525
