28
Energy: -244829.089702 eV PBE+vdW (tier 2 basis)
C    -0.07363  -1.08570  -0.64805
C    -0.38625  0.14050  0.17762
O    -0.98220  1.11687  -0.27483
H    0.40793  -0.77580  -1.58272
H    -1.01939  -1.57334  -0.91824
H    0.55941  -1.81470  -0.12834
N    0.01488  0.08829  1.49231
C    -0.25461  1.20927  2.37064
C    0.81406  2.29829  2.19473
O    2.04442  2.07046  2.40647
H    0.65738  -0.63765  1.81077
H    -1.19728  1.63414  2.00942
C    -0.45820  0.81369  3.86566
C    0.16292  -0.51451  4.35648
C    1.66313  -0.52426  4.19115
O    2.39330  0.11666  5.01758
O    2.16947  -1.06246  3.13723
H    -1.53937  0.73968  4.03705
H    -0.09855  1.63252  4.50426
H    -0.27278  -1.36586  3.81984
H    -0.07862  -0.61983  5.42161
N    0.43250  3.51202  1.80396
C    -0.90653  3.96058  1.40928
H    1.19375  4.18145  1.71366
H    -1.32834  3.27099  0.66718
H    -0.80614  4.95147  0.95734
H    -1.57128  4.04525  2.27804
Ba    3.95300  0.70499  3.17293
