28
Energy: -244827.763667 eV PBE+vdW (tier 2 basis)
C    -0.36200  0.39636  0.10007
C    -0.69091  -0.77109  1.00128
O    -0.52901  -1.94249  0.65358
H    0.68220  0.30709  -0.22338
H    -0.50922  1.37514  0.57212
H    -0.98593  0.33489  -0.80053
N    -1.17701  -0.45290  2.24593
C    -1.58860  -1.48860  3.18841
C    -3.06209  -1.92343  2.94180
O    -3.97142  -1.58344  3.69884
H    -1.48748  0.49856  2.41479
H    -0.93611  -2.34992  2.98065
C    -1.42070  -1.03153  4.63465
C    0.05040  -0.74436  5.00928
C    0.10747  -0.29249  6.43436
O    0.32706  -1.14363  7.37933
O    -0.13445  0.93968  6.73607
H    -1.82445  -1.81984  5.28395
H    -2.04222  -0.14147  4.81104
H    0.45744  0.04625  4.36533
H    0.65743  -1.65140  4.89685
N    -3.20994  -2.68102  1.82872
C    -4.50372  -3.12829  1.34353
H    -2.37672  -2.83238  1.25771
H    -4.49607  -4.21199  1.17047
H    -4.77347  -2.62322  0.40527
H    -5.25471  -2.88969  2.10311
Ba    -0.16637  0.47074  9.11043
