28
Energy: -244829.342531 eV PBE+vdW (tier 2 basis)
C    0.24563  -0.85987  -0.05150
C    -0.01073  -0.14912  1.24501
O    0.90870  0.53499  1.79198
H    1.10360  -1.53327  0.07016
H    -0.61756  -1.43613  -0.39963
H    0.51473  -0.12125  -0.81790
N    -1.21831  -0.25879  1.78728
C    -1.63933  0.32695  3.05062
C    -2.76140  -0.60249  3.55928
O    -3.38818  -1.29488  2.75567
H    -1.93670  -0.87103  1.38265
H    -0.78515  0.31806  3.74161
C    -2.16081  1.78527  2.87764
C    -1.79602  2.72576  4.04649
C    -0.28952  2.83989  4.10644
O    0.37232  2.04108  4.86121
O    0.30245  3.61873  3.28163
H    -3.25017  1.77086  2.73943
H    -1.73197  2.19861  1.95489
H    -2.18519  2.35397  5.00273
H    -2.23163  3.71368  3.85466
N    -3.00379  -0.54513  4.88653
C    -4.07752  -1.28830  5.53305
H    -2.37882  0.00598  5.46473
H    -4.66024  -1.78739  4.75347
H    -3.67286  -2.04574  6.21669
H    -4.73070  -0.60909  6.09474
Ba    2.24620  2.07964  3.17244
