28
Energy: -244829.487394 eV PBE+vdW (tier 2 basis)
C    0.28054  -0.08985  0.09315
C    -0.09800  0.12963  1.53417
O    0.74935  0.53428  2.35686
H    -0.53954  -0.46243  -0.53013
H    1.11157  -0.80573  0.05611
H    0.64667  0.85537  -0.32689
N    -1.38201  -0.14785  1.86382
C    -2.00306  -0.10719  3.19370
C    -2.16521  1.34771  3.68349
O    -1.33175  2.24438  3.43269
H    -1.97598  -0.45873  1.10400
H    -3.02423  -0.47551  3.02597
C    -1.30940  -1.11578  4.17778
C    -1.25309  -0.76975  5.68064
C    -0.20002  0.30838  5.89778
O    1.00436  0.02004  5.57819
O    -0.55379  1.49535  6.18995
H    -0.27474  -1.25824  3.84560
H    -1.82077  -2.07753  4.04468
H    -0.94125  -1.67926  6.21089
H    -2.21907  -0.45282  6.09177
N    -3.27011  1.58937  4.39686
C    -3.51127  2.85875  5.07481
H    -3.91467  0.82585  4.56736
H    -3.37181  3.68818  4.37308
H    -2.81529  2.97270  5.91621
H    -4.54068  2.86956  5.44340
Ba    1.11624  2.17813  4.31209
