28
Energy: -244829.359279 eV PBE+vdW (tier 2 basis)
C    -0.99580  0.20315  0.41973
C    -0.48537  0.65105  1.75947
O    0.37946  1.54833  1.85453
H    -0.21454  -0.42451  -0.03249
H    -1.14400  1.07658  -0.22416
H    -1.92396  -0.37719  0.47115
N    -1.00580  0.02348  2.84051
C    -0.59183  0.14914  4.24502
C    0.03819  1.53468  4.51308
O    1.27255  1.70506  4.61786
H    -1.69478  -0.69729  2.65192
H    -1.53115  0.14519  4.81704
C    0.24942  -1.04494  4.80039
C    1.01938  -1.94155  3.81001
C    2.14689  -1.18751  3.13188
O    3.11030  -0.75557  3.84648
O    2.02015  -0.85917  1.90323
H    0.95920  -0.64082  5.53417
H    -0.44421  -1.69037  5.35519
H    1.44680  -2.76833  4.39313
H    0.35763  -2.37232  3.04889
N    -0.80958  2.55664  4.70987
C    -2.26725  2.55800  4.63337
H    -0.34886  3.43886  4.91695
H    -2.61966  2.18842  3.66259
H    -2.61207  3.58963  4.74814
H    -2.71757  1.96183  5.43900
Ba    2.89246  1.42857  2.60905
