28
Energy: -244829.146920 eV PBE+vdW (tier 2 basis)
C    -0.27372  -0.22935  -0.84689
C    -0.14093  0.30483  0.54912
O    0.87034  0.94741  0.90595
H    -0.16032  0.60123  -1.55463
H    -1.22917  -0.73230  -1.03151
H    0.54597  -0.93363  -1.03842
N    -1.17071  0.06486  1.40852
C    -1.10239  0.58922  2.76520
C    -0.41848  -0.43034  3.69649
O    0.83261  -0.48119  3.71063
H    -1.96579  -0.47934  1.09103
H    -0.36540  1.37869  2.62142
C    -2.30191  1.38702  3.28563
C    -1.86693  2.30073  4.47591
C    -0.39796  2.71740  4.33884
O    -0.03132  3.37862  3.30694
O    0.44906  2.22379  5.15194
H    -3.15736  0.76264  3.58436
H    -2.64492  2.01246  2.45090
H    -1.98326  1.78207  5.43393
H    -2.50757  3.19132  4.48743
N    -1.19724  -1.23594  4.42525
C    -0.69402  -2.24632  5.34825
H    -2.20062  -1.09345  4.37343
H    -1.13316  -3.22359  5.11531
H    0.39212  -2.30022  5.23918
H    -0.94081  -1.97638  6.38281
Ba    2.04787  1.83378  3.16898
