28
Energy: -244828.975735 eV PBE+vdW (tier 2 basis)
C    0.12197  -2.05867  0.27064
C    0.07506  -1.13425  1.46871
O    1.00434  -0.40358  1.79785
H    1.10976  -2.52891  0.20862
H    -0.00189  -1.45609  -0.63965
H    -0.66537  -2.82435  0.27251
N    -1.09052  -1.16391  2.20098
C    -1.32628  -0.16185  3.22956
C    -0.32861  -0.36046  4.38095
O    0.06036  -1.50695  4.72051
H    -1.89149  -1.71788  1.90845
H    -1.11034  0.82493  2.78795
C    -2.81290  -0.15348  3.68828
C    -3.26580  -1.12549  4.79485
C    -2.83836  -2.56774  4.59845
O    -2.40396  -3.22475  5.60214
O    -2.75864  -3.05057  3.41352
H    -3.41953  -0.30119  2.78357
H    -3.04130  0.86296  4.03559
H    -2.90098  -0.80949  5.78033
H    -4.36458  -1.09200  4.85008
N    0.05685  0.73335  5.03446
C    0.97745  0.71859  6.16515
H    -0.20963  1.63156  4.64508
H    0.73660  -0.12228  6.82322
H    2.01645  0.61877  5.82328
H    0.86959  1.65423  6.72142
Ba    -0.48027  -3.89550  4.17150
