28
Energy: -244828.640021 eV PBE+vdW (tier 2 basis)
C    0.58842  0.34303  1.28039
C    -0.27923  -0.82206  1.71215
O    0.17531  -1.89203  2.08790
H    1.62554  -0.00030  1.25609
H    0.51545  1.18181  1.98844
H    0.30689  0.71590  0.28570
N    -1.65384  -0.64043  1.65848
C    -2.36887  0.59747  1.44369
C    -2.25582  1.62258  2.58739
O    -2.14687  2.85161  2.29598
H    -2.17668  -1.46436  1.94256
H    -1.91013  1.12183  0.59250
C    -3.86818  0.33821  1.09677
C    -4.27481  0.86287  -0.29676
C    -4.00793  2.35022  -0.36148
O    -4.75678  3.14704  0.30379
O    -2.94815  2.76865  -0.94894
H    -4.52260  0.79592  1.85137
H    -4.05246  -0.74379  1.13223
H    -5.34528  0.67516  -0.44886
H    -3.70584  0.35365  -1.08372
N    -2.26717  1.25650  3.87006
C    -2.47187  -0.06610  4.46577
H    -2.15150  2.03469  4.51526
H    -3.31352  -0.58514  3.99506
H    -2.72016  0.08217  5.52109
H    -1.57103  -0.68748  4.39782
Ba    -2.81030  4.65107  0.67892
