28
Energy: -244827.677191 eV PBE+vdW (tier 2 basis)
C    -0.52574  0.28343  -0.29351
C    -0.64714  0.82306  1.10190
O    0.04623  1.82494  1.46036
H    -0.80524  1.06907  -1.00760
H    -1.15374  -0.59617  -0.46745
H    0.52236  0.02200  -0.48760
N    -1.49457  0.22201  1.92798
C    -1.72674  0.56760  3.32492
C    -2.16632  -0.76682  3.96787
O    -2.70574  -1.61339  3.24869
H    -2.00580  -0.62613  1.65345
H    -0.78574  0.94139  3.74635
C    -2.84547  1.64686  3.47218
C    -2.57912  2.72852  4.54172
C    -1.31094  3.46573  4.17894
O    -0.18891  3.05780  4.65111
O    -1.36226  4.38488  3.29090
H    -3.80358  1.15352  3.68244
H    -2.96012  2.14627  2.50080
H    -2.48942  2.29593  5.54388
H    -3.42064  3.43171  4.53833
N    -1.99252  -0.94946  5.29509
C    -1.28579  -0.13354  6.27197
H    -2.37406  -1.83503  5.62068
H    -0.54908  -0.74795  6.80549
H    -1.97986  0.29247  7.00994
H    -0.75217  0.68939  5.78718
Ba    0.94124  3.84636  2.53947
