28
Energy: -244828.741514 eV PBE+vdW (tier 2 basis)
C    0.57130  0.03216  0.26116
C    -0.21687  0.92390  1.18253
O    -0.17853  2.18413  1.03292
H    0.26580  -1.01915  0.30065
H    1.63035  0.07973  0.55776
H    0.47568  0.39173  -0.76965
N    -0.90612  0.32574  2.15512
C    -1.73496  0.87609  3.24779
C    -3.15008  1.34222  2.79989
O    -4.12263  1.00029  3.45874
H    -0.89008  -0.68839  2.12440
H    -1.94100  0.00426  3.87979
C    -1.09092  1.95959  4.13612
C    0.35732  1.68469  4.61258
C    1.34294  2.40238  3.71958
O    2.13621  1.75929  2.95025
O    1.26713  3.68463  3.65939
H    -1.75633  2.03397  5.00580
H    -1.12636  2.93974  3.64529
H    0.58970  0.61384  4.64797
H    0.47536  2.09208  5.62558
N    -3.19475  2.14316  1.70287
C    -4.44299  2.69641  1.19864
H    -2.31832  2.43675  1.28120
H    -4.49645  2.58446  0.10891
H    -4.54606  3.75992  1.45683
H    -5.26933  2.14681  1.65975
Ba    1.90080  3.64975  1.30291
