28
Energy: -244828.590891 eV PBE+vdW (tier 2 basis)
C    -0.24903  -0.48731  0.42834
C    -0.52243  -0.57125  1.91448
O    0.31870  -0.96190  2.70574
H    0.80338  -0.21775  0.29420
H    -0.38211  -1.49249  0.00155
H    -0.87182  0.21520  -0.13531
N    -1.81999  -0.31325  2.39106
C    -2.86291  0.56784  1.86304
C    -3.46272  0.02757  0.55111
O    -4.04591  0.76196  -0.29076
H    -1.82989  -0.41287  3.40511
H    -3.70973  0.42531  2.55951
C    -2.57488  2.08542  1.96398
C    -1.44649  2.72640  1.12797
C    -1.91451  2.96980  -0.28706
O    -1.51173  2.22516  -1.24667
O    -2.83703  3.84141  -0.47424
H    -2.34454  2.25591  3.02471
H    -3.50941  2.62999  1.76888
H    -0.52674  2.13255  1.13781
H    -1.22002  3.70170  1.57870
N    -3.42324  -1.29656  0.41360
C    -4.00976  -2.02425  -0.69893
H    -2.90786  -1.79753  1.13557
H    -3.37397  -1.96207  -1.59411
H    -4.11206  -3.07648  -0.41857
H    -5.00129  -1.62080  -0.93373
Ba    -3.82314  2.39088  -2.19072
