28
Energy: -244829.242246 eV PBE+vdW (tier 2 basis)
C    0.09154  -0.45386  0.19984
C    -0.12078  -0.06431  1.63478
O    0.87616  0.08467  2.40295
H    -0.84433  -0.60307  -0.34813
H    0.67524  0.32994  -0.30084
H    0.68296  -1.37743  0.16421
N    -1.37684  0.11775  2.04085
C    -1.83077  0.35243  3.40624
C    -3.02132  -0.62039  3.59426
O    -3.62957  -1.03073  2.60460
H    -2.14566  -0.19207  1.43599
H    -1.00426  0.11923  4.08863
C    -2.32280  1.80136  3.65850
C    -1.37117  2.91879  3.22249
C    0.04289  2.79349  3.74682
O    0.27023  2.15527  4.83430
O    1.00420  3.24394  3.03170
H    -2.52982  1.88798  4.73360
H    -3.28214  1.94119  3.13944
H    -1.77183  3.88424  3.56994
H    -1.31004  2.99957  2.12977
N    -3.33657  -0.92193  4.87233
C    -4.48474  -1.74149  5.23727
H    -2.77020  -0.52735  5.61490
H    -5.23867  -1.14641  5.76916
H    -4.92506  -2.13469  4.31646
H    -4.17183  -2.57796  5.87401
Ba    2.43117  1.38386  3.81792
