28
Energy: -244829.043404 eV PBE+vdW (tier 2 basis)
C    -0.20805  1.54173  0.57241
C    -0.33346  0.73046  1.83817
O    0.00017  1.13910  2.94709
H    -0.28736  0.94158  -0.34178
H    0.74973  2.07303  0.58051
H    -1.00255  2.30068  0.56136
N    -0.84748  -0.54761  1.70277
C    -1.22249  -1.26928  2.91049
C    0.01719  -1.61385  3.74773
O    -0.03045  -1.58844  5.00725
H    -1.28747  -0.81436  0.82752
H    -1.81222  -0.60462  3.55588
C    -2.09822  -2.48832  2.53685
C    -2.34905  -3.52620  3.64269
C    -2.68170  -2.94704  5.00548
O    -3.23403  -1.79495  5.09275
O    -2.26688  -3.55874  6.04771
H    -1.63644  -3.01447  1.68705
H    -3.05638  -2.08175  2.18446
H    -3.17980  -4.17900  3.33467
H    -1.48378  -4.18757  3.78009
N    1.11525  -1.97978  3.09334
C    2.38101  -2.30155  3.73717
H    1.08810  -1.86888  2.08328
H    3.01383  -2.83901  3.02498
H    2.89922  -1.38927  4.06332
H    2.20143  -2.93884  4.60912
Ba    -1.60513  -1.33506  6.94366
