28
Energy: -244827.843238 eV PBE+vdW (tier 2 basis)
C    0.22625  0.33465  0.38501
C    0.00456  0.39475  1.87942
O    0.93530  0.59045  2.64963
H    -0.02850  1.30288  -0.06833
H    -0.35479  -0.43852  -0.12889
H    1.29284  0.15847  0.22012
N    -1.26926  0.25785  2.42503
C    -2.60171  -0.08630  1.94544
C    -3.05319  -1.51738  2.29846
O    -4.29296  -1.71227  2.49939
H    -1.21326  0.39654  3.43215
H    -3.28367  0.50853  2.57167
C    -2.94714  0.31659  0.47650
C    -3.00350  -0.78901  -0.59637
C    -4.30452  -1.56681  -0.50966
O    -4.29006  -2.83355  -0.35083
O    -5.40309  -0.90573  -0.46592
H    -2.23649  1.09424  0.18132
H    -3.93116  0.79919  0.48522
H    -2.97168  -0.30566  -1.58387
H    -2.16499  -1.49385  -0.55095
N    -2.21266  -2.54297  2.44103
C    -0.77311  -2.67156  2.20027
H    -2.68738  -3.39522  2.72775
H    -0.49948  -2.30028  1.20849
H    -0.18271  -2.15117  2.96167
H    -0.53377  -3.73846  2.23580
Ba    -6.26728  -2.52226  1.17756
