37
Energy: -246334.210046 eV PBE+vdW (tier 2 basis)
C    -2.189399  0.894747  -1.206565
C    -1.286750  1.048702  -0.029760
O    -0.467806  2.009117  0.044983
H    -1.578394  1.022155  -2.112086
H    -2.939317  1.699424  -1.231826
H    -2.692042  -0.075712  -1.252826
N    -1.311060  0.139537  0.986571
C    -2.555640  -0.279012  1.630472
C    -3.038901  0.925856  2.500964
O    -2.285230  1.945937  2.627357
H    -0.553576  0.302730  1.650227
H    -3.311326  -0.417332  0.842733
C    -2.406786  -1.638149  2.358944
C    -1.341089  -1.716578  3.465070
C    -1.380372  -3.011506  4.297715
N    -0.902283  -4.191984  3.568645
C    -0.394876  -5.303284  4.145668
N    0.173503  -6.239591  3.377429
N    -0.433809  -5.463888  5.472081
H    -3.384253  -1.910630  2.779081
H    -2.204725  -2.371762  1.564172
H    -1.491254  -0.897562  4.186012
H    -0.326471  -1.598261  3.054081
H    -2.404679  -3.179556  4.672248
H    -0.724660  -2.874686  5.168178
H    -1.127387  -4.272665  2.582676
H    0.461719  -6.047496  2.425207
H    0.380502  -7.164476  3.739808
H    0.090560  -6.208317  5.920569
H    -1.092081  -4.960858  6.054346
N    -4.237703  0.909172  3.065151
C    -5.317009  -0.078966  2.957449
H    -4.449157  1.735936  3.625515
H    -5.247630  -0.641012  2.021328
H    -5.304913  -0.768728  3.810817
H    -6.271706  0.457670  2.961126
Ba    -0.730270  3.750422  1.792473
