37
Energy: -246334.069522 eV PBE+vdW (tier 2 basis)
C    -1.400133  -3.146461  1.908223
C    -0.658839  -1.863413  1.723006
O    0.626139  -1.857510  1.909867
H    -0.988686  -3.906674  1.229666
H    -2.475703  -3.071407  1.732660
H    -1.244508  -3.505089  2.935513
N    -1.263601  -0.743382  1.377652
C    -2.676704  -0.520061  1.014900
C    -2.642998  0.687646  0.058723
O    -1.821281  1.597870  0.290882
H    -0.704466  0.113081  1.258182
H    -3.046533  -1.411170  0.491285
C    -3.593295  -0.255406  2.238930
C    -3.279075  0.938549  3.173021
C    -4.106179  2.223274  3.003369
N    -3.605273  3.113634  1.950985
C    -4.018487  4.374661  1.766252
N    -3.384865  5.150937  0.871374
N    -5.055982  4.867624  2.452927
H    -3.582933  -1.176106  2.839309
H    -4.621408  -0.177611  1.854300
H    -2.207998  1.190161  3.170795
H    -3.490855  0.599405  4.195202
H    -4.080088  2.767277  3.960004
H    -5.157527  1.953364  2.804938
H    -2.858664  2.762160  1.341727
H    -2.488470  4.878320  0.488435
H    -3.709909  6.086976  0.660211
H    -5.314394  5.845651  2.389113
H    -5.642055  4.280285  3.031943
N    -3.544579  0.699328  -0.925533
C    -3.694561  1.793042  -1.886101
H    -4.160959  -0.101896  -1.030806
H    -3.857783  1.376116  -2.885317
H    -2.778532  2.390158  -1.888395
H    -4.550554  2.427982  -1.622991
Ba    2.884171  -2.396893  2.214608
