37
Energy: -246333.550148 eV PBE+vdW (tier 2 basis)
C    -2.359628  -0.901554  1.375951
C    -1.581795  -0.718029  2.641589
O    -1.032530  -1.741568  3.209209
H    -2.782495  0.031829  0.989082
H    -3.186852  -1.604728  1.548920
H    -1.710519  -1.329094  0.598604
N    -1.486222  0.501226  3.150132
C    -0.782698  0.948177  4.367476
C    -1.710576  1.871206  5.227718
O    -1.336645  3.007384  5.528752
H    -1.945347  1.231869  2.607768
H    -0.565500  0.043306  4.952209
C    0.542102  1.658979  4.036050
C    0.445618  2.869803  3.073177
C    1.332424  4.056751  3.468486
N    0.808039  4.697248  4.676209
C    1.213677  5.874542  5.167466
N    0.538339  6.432590  6.182990
N    2.279216  6.504318  4.655393
H    1.237013  0.914280  3.623655
H    0.965086  1.964540  5.002620
H    -0.586561  3.243805  2.997862
H    0.740359  2.566646  2.060299
H    1.344406  4.781639  2.640316
H    2.368352  3.712338  3.631001
H    0.030599  4.211627  5.139009
H    0.876877  7.262658  6.654382
H    -0.344985  6.050808  6.496945
H    2.535713  7.436568  4.958440
H    2.889226  6.061127  3.981573
N    -2.901175  1.385978  5.637052
C    -3.463525  0.049971  5.496573
H    -3.439425  2.057150  6.183647
H    -4.152268  -0.126121  6.329206
H    -2.678719  -0.715478  5.553039
H    -4.028093  -0.066506  4.560132
Ba    -0.340626  -3.990987  3.450020
