37
Energy: -246333.579406 eV PBE+vdW (tier 2 basis)
C    -0.540932  0.007690  -1.774125
C    0.219057  -0.148682  -0.503048
O    1.514821  -0.223943  -0.536228
H    -0.853425  1.055530  -1.895590
H    -1.433087  -0.627750  -1.763013
H    0.092596  -0.259116  -2.624207
N    -0.365371  -0.198390  0.687145
C    -1.782936  -0.125114  1.153242
C    -2.483686  -1.482263  0.911050
O    -2.601746  -1.915037  -0.248149
H    0.298228  -0.303089  1.453490
H    -1.650602  0.020792  2.230087
C    -2.605059  1.100955  0.644600
C    -3.663293  0.924512  -0.461359
C    -5.007071  0.371291  0.051335
N    -5.970754  0.110731  -1.016834
C    -6.176474  -1.072300  -1.621973
N    -5.325297  -2.091316  -1.451005
N    -7.256510  -1.227675  -2.400248
H    -1.886619  1.875887  0.344390
H    -3.100777  1.518939  1.533333
H    -3.299752  0.289122  -1.276671
H    -3.846949  1.915601  -0.900417
H    -5.474017  1.092016  0.736443
H    -4.882901  -0.557123  0.624017
H    -6.558240  0.883514  -1.313636
H    -5.579064  -3.016149  -1.778146
H    -4.386630  -1.982607  -1.055742
H    -7.359070  -2.031459  -3.008670
H    -8.034213  -0.578506  -2.367511
N    -2.980811  -2.122321  1.983890
C    -2.934470  -1.741387  3.399917
H    -3.426421  -3.010960  1.760813
H    -1.910768  -1.763251  3.796230
H    -3.522135  -2.471039  3.964473
H    -3.382460  -0.754748  3.571440
Ba    3.807139  -0.306355  -1.030097
