37
Energy: -246333.726565 eV PBE+vdW (tier 2 basis)
C    -1.211135  -1.904235  -0.708143
C    -0.786874  -1.514217  0.671472
O    0.318357  -1.973200  1.165690
H    -1.570625  -1.044625  -1.287855
H    -2.035171  -2.634009  -0.660735
H    -0.378849  -2.367306  -1.245036
N    -1.539441  -0.697073  1.401551
C    -2.892236  -0.199068  1.062525
C    -2.955556  1.195188  0.377654
O    -4.076863  1.644976  0.136819
H    -1.194506  -0.489554  2.339936
H    -3.293846  -0.883989  0.303854
C    -3.846423  -0.299439  2.274705
C    -3.705677  0.687493  3.448568
C    -4.121739  2.153578  3.200596
N    -5.413629  2.313762  2.536108
C    -6.552030  2.775573  3.074308
N    -6.729775  2.825903  4.401667
N    -7.535356  3.192559  2.265442
H    -3.771062  -1.324435  2.665631
H    -4.860452  -0.225786  1.859781
H    -2.677842  0.709453  3.848931
H    -4.317597  0.276111  4.264729
H    -3.380068  2.671136  2.577312
H    -4.132840  2.696028  4.154652
H    -5.377273  2.180443  1.521600
H    -7.509851  3.331434  4.805614
H    -6.125385  2.329529  5.042044
H    -7.367615  3.379255  1.284031
H    -8.474275  3.353136  2.611745
N    -1.803925  1.806680  0.043544
C    -1.762124  3.095255  -0.653280
H    -0.925098  1.390154  0.326454
H    -1.611439  3.921516  0.053639
H    -2.710964  3.240232  -1.177048
H    -0.943358  3.091217  -1.380083
Ba    2.274207  -3.235915  1.563723
