37
Energy: -246334.647805 eV PBE+vdW (tier 2 basis)
C    -4.438239  -1.269860  0.854889
C    -3.112653  -1.298502  1.540980
O    -2.052480  -1.578780  0.910924
H    -4.402085  -0.522811  0.048888
H    -5.273377  -1.033619  1.522507
H    -4.624743  -2.240915  0.376704
N    -3.063102  -1.009316  2.857642
C    -1.818602  -0.896054  3.630993
C    -1.164662  -2.292018  3.827534
O    -0.227852  -2.605832  3.028570
H    -3.942394  -0.801231  3.323033
H    -1.094182  -0.385892  2.978885
C    -1.988526  -0.025228  4.895314
C    -2.092875  1.479171  4.568249
C    -1.863368  2.441091  5.747477
N    -3.016900  2.584827  6.643889
C    -3.279117  3.681271  7.388698
N    -4.456742  3.782319  8.016664
N    -2.386097  4.670434  7.487458
H    -1.104693  -0.198898  5.528022
H    -2.854147  -0.367587  5.481203
H    -3.051270  1.719646  4.084282
H    -1.312381  1.728565  3.833619
H    -1.657972  3.434391  5.326458
H    -0.970834  2.128794  6.315886
H    -3.566180  1.761217  6.864339
H    -5.255631  3.220430  7.747513
H    -4.611561  4.482391  8.734632
H    -2.644121  5.565478  7.890692
H    -1.401617  4.525818  7.298878
N    -1.549265  -3.154239  4.759182
C    -2.625578  -3.075322  5.750215
H    -0.993299  -4.010579  4.775911
H    -3.506351  -2.574235  5.337494
H    -2.288821  -2.568383  6.663030
H    -2.916301  -4.097388  6.012561
Ba    0.125565  -2.666249  0.582108
