37
Energy: -246335.332043 eV PBE+vdW (tier 2 basis)
C    -0.804780  0.408252  -0.686223
C    -1.036648  1.314577  0.477518
O    -0.760103  2.548321  0.412461
H    0.241411  0.483178  -1.010874
H    -1.422779  0.756151  -1.527102
H    -1.043938  -0.640484  -0.481523
N    -1.560809  0.788315  1.600411
C    -2.002416  1.542776  2.788305
C    -0.764067  2.012431  3.594779
O    -0.208355  3.105094  3.279049
H    -1.748626  -0.211719  1.591040
H    -2.469625  2.471529  2.427190
C    -3.061802  0.705860  3.533467
C    -3.811520  1.433353  4.663166
C    -4.954927  0.562075  5.211715
N    -5.698955  1.262407  6.262244
C    -6.504403  0.674670  7.172387
N    -6.998766  1.404302  8.178228
N    -6.785009  -0.630764  7.093541
H    -2.613649  -0.228645  3.914662
H    -3.790819  0.389082  2.771290
H    -4.230638  2.373986  4.270744
H    -3.131335  1.701271  5.485272
H    -4.545435  -0.363029  5.644046
H    -5.629765  0.280704  4.385336
H    -5.772414  2.272573  6.188641
H    -6.621535  2.314658  8.414651
H    -7.758838  1.060281  8.755599
H    -7.261694  -1.104751  7.854005
H    -6.707666  -1.141782  6.222717
N    -0.303356  1.246786  4.572515
C    0.887570  1.537571  5.377672
H    -0.781477  0.368288  4.753128
H    1.002497  2.619975  5.481177
H    1.783903  1.115343  4.904624
H    0.763590  1.086797  6.366825
Ba    0.360089  4.509955  1.307920
