37
Energy: -246335.086779 eV PBE+vdW (tier 2 basis)
C    -1.279724  -0.974419  -0.347685
C    -0.837962  -0.917649  1.077376
O    0.385244  -0.809177  1.382035
H    -2.362514  -1.083936  -0.468342
H    -0.776861  -1.810315  -0.852763
H    -0.952989  -0.056308  -0.856582
N    -1.775234  -0.979311  2.044616
C    -1.493203  -0.850064  3.481943
C    -0.712455  -2.090953  3.997587
O    0.547787  -1.973905  4.114663
H    -2.743293  -1.084781  1.751994
H    -0.756965  -0.039633  3.587739
C    -2.751945  -0.463246  4.285487
C    -3.164702  1.012894  4.128814
C    -4.416935  1.333912  4.961958
N    -4.809664  2.737561  4.806757
C    -5.575726  3.437738  5.669104
N    -6.174640  2.830288  6.699439
N    -5.711347  4.757931  5.502893
H    -2.542974  -0.672242  5.345446
H    -3.593503  -1.114906  4.009081
H    -3.365072  1.239855  3.069032
H    -2.341487  1.669262  4.448493
H    -4.206516  1.155593  6.026812
H    -5.245339  0.669008  4.663305
H    -4.635642  3.175630  3.907371
H    -6.619917  3.372187  7.432935
H    -6.360274  1.835026  6.697634
H    -6.431082  5.280009  5.991488
H    -5.090407  5.288059  4.902661
N    -1.294280  -3.246151  4.291976
C    -2.693774  -3.671629  4.187720
H    -0.644929  -3.947065  4.652041
H    -2.705836  -4.761811  4.091674
H    -3.169195  -3.253074  3.295766
H    -3.260514  -3.398681  5.086321
Ba    2.424874  -1.322694  2.650211
