37
Energy: -246334.119459 eV PBE+vdW (tier 2 basis)
C    -0.546922  -1.684657  0.417938
C    -0.111115  -0.466492  1.160305
O    0.704323  0.363157  0.572256
H    0.337933  -2.266521  0.125450
H    -1.055824  -1.386150  -0.509135
H    -1.217052  -2.324528  0.997010
N    -0.505452  -0.186992  2.380165
C    -1.605564  -0.696830  3.211191
C    -2.143955  0.646136  3.832930
O    -1.386729  1.627923  3.808613
H    -0.272272  0.756115  2.784781
H    -2.374118  -1.165882  2.581546
C    -1.153128  -1.641939  4.347468
C    -0.840860  -3.095338  3.958176
C    -0.580808  -3.935480  5.218845
N    -0.397892  -5.355066  4.898025
C    0.100604  -6.280356  5.742019
N    0.316905  -7.526172  5.302706
N    0.407525  -5.957572  7.003140
H    -0.289843  -1.182133  4.852347
H    -1.964562  -1.645763  5.090885
H    0.033667  -3.151931  3.292638
H    -1.699540  -3.521444  3.412640
H    -1.427393  -3.810978  5.915652
H    0.328752  -3.575813  5.722416
H    -0.873989  -5.710200  4.074572
H    0.505289  -8.287337  5.945739
H    0.305247  -7.753688  4.315766
H    0.911953  -6.605743  7.598439
H    0.027312  -5.133094  7.450649
N    -3.366041  0.621947  4.368846
C    -3.987207  1.771771  5.033410
H    -3.919660  -0.225436  4.286649
H    -4.860633  2.110992  4.463845
H    -3.252890  2.578782  5.091423
H    -4.302558  1.490720  6.044690
Ba    1.889450  2.011542  -0.548919
