37
Energy: -246333.794162 eV PBE+vdW (tier 2 basis)
C    -2.272393  -0.856482  -1.204934
C    -1.767057  -0.783244  0.203580
O    -0.713576  -0.077577  0.467000
H    -3.171070  -1.473534  -1.308175
H    -1.494290  -1.280396  -1.855803
H    -2.509274  0.153870  -1.567570
N    -2.423025  -1.451993  1.132656
C    -2.190441  -1.582911  2.581614
C    -2.559231  -3.057820  2.888578
O    -3.711097  -3.416279  2.587675
H    -3.246316  -1.981271  0.829033
H    -1.143335  -1.343358  2.794534
C    -3.170497  -0.657038  3.348584
C    -3.333948  -0.990033  4.854008
C    -4.789689  -1.142399  5.312165
N    -5.426633  -2.317044  4.707447
C    -6.598614  -2.841276  5.094020
N    -7.022672  -3.983647  4.533761
N    -7.342861  -2.247076  6.034357
H    -4.142788  -0.736252  2.841690
H    -2.843098  0.382258  3.215830
H    -2.888648  -0.193067  5.462018
H    -2.788079  -1.906164  5.124819
H    -5.355249  -0.228951  5.060255
H    -4.796948  -1.251527  6.407121
H    -4.957739  -2.758008  3.908704
H    -6.427448  -4.512911  3.908753
H    -7.945796  -4.356690  4.720077
H    -8.179097  -2.687374  6.400374
H    -7.120699  -1.326856  6.390366
N    -1.662169  -3.864535  3.468781
C    -0.283262  -3.574118  3.865063
H    -2.000135  -4.814384  3.620301
H    0.091927  -4.428167  4.436287
H    -0.227199  -2.693166  4.516389
H    0.370257  -3.442779  2.992294
Ba    1.080840  1.344964  -0.097385
