37
Energy: -246334.025010 eV PBE+vdW (tier 2 basis)
C    0.043534  0.492355  0.448386
C    -0.112132  0.400638  1.929157
O    0.958768  0.336992  2.668055
H    0.593182  -0.387598  0.086385
H    0.645310  1.376540  0.197648
H    -0.909890  0.553106  -0.082662
N    -1.280960  0.381961  2.523545
C    -2.660855  0.492483  2.018140
C    -3.392155  1.040026  3.287616
O    -2.908166  0.727173  4.383082
H    -1.347431  0.334816  3.565381
H    -2.697912  1.194466  1.176694
C    -3.174795  -0.924917  1.637400
C    -4.670395  -1.116849  1.325787
C    -5.118216  -0.760686  -0.098300
N    -6.514826  -1.177939  -0.278468
C    -7.319272  -0.850873  -1.306323
N    -8.617765  -1.168767  -1.256376
N    -6.836418  -0.179629  -2.360560
H    -2.937735  -1.572327  2.493369
H    -2.566009  -1.294127  0.797370
H    -5.293041  -0.585897  2.059999
H    -4.873855  -2.188119  1.479040
H    -4.469616  -1.277288  -0.826620
H    -5.051722  0.321054  -0.287728
H    -6.862929  -1.889676  0.357625
H    -9.204493  -1.128444  -2.082695
H    -9.058208  -1.482855  -0.399231
H    -7.459676  0.171138  -3.079943
H    -5.849218  -0.189318  -2.583187
N    -4.497473  1.792873  3.166889
C    -5.129156  2.353820  1.979390
H    -4.897704  2.056030  4.067432
H    -5.403163  3.396570  2.176300
H    -6.042426  1.804989  1.709424
H    -4.440434  2.350486  1.128510
Ba    2.903122  0.316916  3.934988
