37
Energy: -246333.791373 eV PBE+vdW (tier 2 basis)
C    -0.110806  0.312406  0.105143
C    -0.160277  0.005590  1.563749
O    0.939812  -0.042549  2.245967
H    -0.234146  1.398673  -0.030456
H    -0.907555  -0.183952  -0.459720
H    0.855289  0.016584  -0.314353
N    -1.311575  -0.212167  2.177380
C    -2.661315  -0.059687  1.596839
C    -2.869447  1.438822  1.230934
O    -2.257935  2.302457  1.858094
H    -1.254677  -0.344848  3.186379
H    -2.709531  -0.694381  0.701228
C    -3.731074  -0.569648  2.590733
C    -3.989689  0.316447  3.834945
C    -5.262436  1.172621  3.796378
N    -6.469130  0.344061  3.948654
C    -7.734084  0.788433  3.809042
N    -8.753286  -0.072744  3.913547
N    -7.974315  2.074993  3.529420
H    -3.439321  -1.584906  2.896228
H    -4.660489  -0.703394  2.020189
H    -3.159672  1.020468  3.992192
H    -4.019430  -0.311969  4.737594
H    -5.331296  1.719000  2.843953
H    -5.207492  1.913547  4.610129
H    -6.359450  -0.532217  4.450800
H    -8.605650  -1.074841  3.932128
H    -9.710731  0.249128  4.003856
H    -8.912909  2.392065  3.311360
H    -7.284283  2.793220  3.712003
N    -3.758462  1.711262  0.247771
C    -4.431932  0.780788  -0.658761
H    -3.852290  2.706301  0.053700
H    -5.040045  1.364565  -1.355826
H    -5.105681  0.096466  -0.126783
H    -3.720102  0.194800  -1.257132
Ba    3.156870  0.117456  2.971708
