37
Energy: -246334.904038 eV PBE+vdW (tier 2 basis)
C    0.546565  -1.774739  1.262950
C    0.192570  -0.665815  2.198142
O    0.955217  0.331766  2.348322
H    0.627758  -1.361756  0.246785
H    -0.180351  -2.593617  1.255958
H    1.536253  -2.174030  1.521248
N    -0.971303  -0.745958  2.874605
C    -1.535328  0.323926  3.712535
C    -0.789650  0.388470  5.071883
O    0.263324  1.088405  5.141209
H    -1.530958  -1.580144  2.721204
H    -1.250093  1.269227  3.228447
C    -3.085599  0.301281  3.697223
C    -3.842433  -0.943073  4.212271
C    -5.267337  -1.111206  3.646385
N    -6.233611  -0.145707  4.179197
C    -7.559835  -0.376074  4.317997
N    -8.308539  0.509108  4.984828
N    -8.120518  -1.482243  3.820811
H    -3.360054  0.469378  2.643909
H    -3.411959  1.200192  4.240784
H    -3.917283  -0.948580  5.311010
H    -3.317887  -1.870916  3.933336
H    -5.619965  -2.113195  3.924176
H    -5.235789  -1.059034  2.544824
H    -5.950423  0.825908  4.255196
H    -7.897377  1.198847  5.602923
H    -9.321955  0.484468  4.936611
H    -9.068212  -1.742861  4.075370
H    -7.696502  -2.006881  3.065245
N    -1.237897  -0.288720  6.117827
C    -0.585663  -0.310300  7.432420
H    -2.070254  -0.857213  6.000097
H    0.266195  -1.002363  7.429607
H    -1.312857  -0.644478  8.177368
H    -0.237947  0.694885  7.689364
Ba    2.194695  1.866039  3.788936
