37
Energy: -246333.224970 eV PBE+vdW (tier 2 basis)
C    0.583236  -0.265373  0.060198
C    0.106365  0.577525  1.199981
O    0.751994  1.649808  1.520213
H    1.618579  -0.586547  0.241966
H    0.574534  0.326367  -0.866434
H    -0.030158  -1.158081  -0.102601
N    -0.978618  0.195600  1.859281
C    -1.652118  0.892641  2.963126
C    -1.348323  0.420448  4.409225
O    -1.697519  1.216376  5.291096
H    -1.422272  -0.650661  1.507381
H    -1.269420  1.920007  2.947439
C    -3.182542  0.954570  2.724144
C    -3.993288  -0.328097  2.991240
C    -4.500458  -0.541629  4.429451
N    -5.481566  0.466333  4.848753
C    -5.444461  1.200652  5.981076
N    -6.594595  1.668258  6.485347
N    -4.287144  1.482026  6.584447
H    -3.335040  1.280057  1.685674
H    -3.566925  1.772926  3.348036
H    -3.433390  -1.235501  2.710223
H    -4.863814  -0.327119  2.319610
H    -3.688476  -0.551325  5.163369
H    -4.980628  -1.529576  4.486380
H    -6.384806  0.428249  4.383993
H    -7.489733  1.263886  6.234758
H    -6.603708  2.394152  7.193046
H    -4.287651  1.868178  7.521499
H    -3.379357  1.383864  6.117939
N    -0.776543  -0.763385  4.709881
C    -0.406857  -1.915513  3.885751
H    -0.650864  -0.875604  5.715264
H    -0.164840  -2.741982  4.560794
H    0.480260  -1.722994  3.269505
H    -1.237708  -2.255804  3.254667
Ba    2.340811  3.393671  1.451138
