37
Energy: -246334.070403 eV PBE+vdW (tier 2 basis)
C    -0.438176  -0.067618  -0.678642
C    -0.145643  -0.003899  0.783366
O    1.087815  -0.132276  1.178572
H    0.100779  0.740099  -1.193448
H    -1.501414  0.015398  -0.917124
H    -0.062775  -1.018016  -1.082056
N    -1.080988  0.180210  1.687452
C    -2.528176  0.426941  1.548263
C    -2.834210  1.242097  2.836714
O    -2.171283  0.961952  3.843095
H    -0.835110  0.233119  2.694607
H    -2.715051  1.002711  0.634582
C    -3.286800  -0.925810  1.514985
C    -4.826324  -0.876304  1.407309
C    -5.563707  -0.923766  2.753423
N    -7.005895  -1.076984  2.523644
C    -7.964877  -0.979309  3.462691
N    -9.252609  -1.013889  3.100482
N    -7.638139  -0.814627  4.750994
H    -2.988033  -1.502218  2.403604
H    -2.901411  -1.481119  0.648729
H    -5.132044  -1.759374  0.826144
H    -5.157196  -0.003324  0.826540
H    -5.396970  -0.004450  3.333352
H    -5.179959  -1.774100  3.342396
H    -7.291420  -1.453384  1.624369
H    -9.991444  -1.137092  3.784064
H    -9.537169  -0.930518  2.131467
H    -8.351189  -0.625393  5.446932
H    -6.719010  -1.058334  5.097881
N    -3.794297  2.185196  2.830156
C    -4.591412  2.724314  1.731575
H    -3.895370  2.646392  3.734121
H    -5.635268  2.387037  1.790146
H    -4.181463  2.430915  0.760888
H    -4.580594  3.819266  1.780079
Ba    3.360261  -0.280263  1.639438
