37
Energy: -246334.719561 eV PBE+vdW (tier 2 basis)
C    -0.690750  -0.271852  -0.709299
C    -0.426604  -0.566589  0.730256
O    0.725377  -0.899836  1.131782
H    -0.401773  -1.138233  -1.319486
H    -0.047661  0.563184  -1.022567
H    -1.734376  -0.017364  -0.921621
N    -1.447011  -0.462911  1.606599
C    -1.308029  -0.626356  3.060836
C    -1.041707  -2.114054  3.420894
O    0.167858  -2.452901  3.612002
H    -2.358367  -0.210047  1.234482
H    -0.358736  -0.143561  3.336483
C    -2.433701  0.087030  3.841728
C    -2.234673  1.614262  3.899674
C    -3.123561  2.368585  4.900831
N    -4.515472  2.517438  4.449963
C    -5.526266  2.943534  5.243943
N    -6.761324  3.038357  4.739160
N    -5.309287  3.231588  6.530418
H    -2.427073  -0.316491  4.865616
H    -3.418956  -0.164092  3.424068
H    -2.338387  2.066643  2.900069
H    -1.199932  1.826177  4.208000
H    -2.674630  3.360969  5.069563
H    -3.131511  1.833918  5.862184
H    -4.652830  2.677110  3.455757
H    -7.501722  3.518164  5.240206
H    -7.002814  2.644097  3.837926
H    -6.083419  3.416764  7.160317
H    -4.383001  3.439042  6.883239
N    -2.001702  -3.024628  3.513724
C    -3.445191  -2.917477  3.284481
H    -1.663090  -3.946992  3.791522
H    -3.662696  -2.254132  2.442006
H    -3.966563  -2.573013  4.186053
H    -3.819354  -3.913950  3.029787
Ba    2.328934  -2.232387  2.430405
