37
Energy: -246333.171408 eV PBE+vdW (tier 2 basis)
C    0.167379  -0.641427  0.040028
C    0.008232  -0.394150  1.508817
O    0.866272  -0.678069  2.347475
H    0.424280  -1.697674  -0.115542
H    1.022220  -0.058667  -0.330816
H    -0.719047  -0.392100  -0.553565
N    -1.191821  0.181006  1.920070
C    -1.370942  0.550934  3.313312
C    -2.594274  -0.161779  3.900124
O    -3.126154  0.207921  5.015950
H    -1.781971  0.605555  1.208092
H    -0.499987  0.078233  3.810713
C    -1.345444  2.070648  3.629348
C    -0.396827  2.947467  2.788192
C    1.100778  2.626407  2.707242
N    1.803824  2.646050  4.002105
C    2.886093  1.882214  4.292030
N    3.026555  0.661740  3.774445
N    3.798796  2.353365  5.154083
H    -1.098033  2.176866  4.695521
H    -2.354015  2.490677  3.497262
H    -0.521152  3.978309  3.154237
H    -0.749999  2.983554  1.747109
H    1.562934  3.371221  2.040878
H    1.276168  1.651683  2.248709
H    1.770827  3.532973  4.498874
H    2.275048  0.182376  3.269477
H    3.910905  0.172494  3.856012
H    3.897693  3.346375  5.332085
H    4.527374  1.753686  5.526048
N    -3.072135  -1.201225  3.246877
C    -4.178698  -2.048802  3.677661
H    -2.592920  -1.420382  2.371621
H    -3.953033  -2.521261  4.643769
H    -4.322654  -2.842309  2.938890
H    -5.111398  -1.470297  3.736023
Ba    -4.465873  0.543763  6.916741
