37
Energy: -246335.024332 eV PBE+vdW (tier 2 basis)
C    0.514616  0.434739  0.274484
C    -0.123344  -0.185708  1.473520
O    0.546114  -0.436191  2.517411
H    0.941107  1.405904  0.563866
H    -0.174999  0.582907  -0.563059
H    1.353628  -0.190927  -0.058940
N    -1.439716  -0.471613  1.425578
C    -2.219814  -0.997767  2.555772
C    -1.802730  -2.461171  2.871038
O    -0.975940  -2.635044  3.821006
H    -1.930238  -0.269873  0.558147
H    -1.886525  -0.452221  3.450961
C    -3.731498  -0.749831  2.372103
C    -4.167267  0.706163  2.626884
C    -5.668485  0.895860  2.336914
N    -6.106157  2.289912  2.474535
C    -7.166712  2.747628  3.173537
N    -7.726869  3.909747  2.822475
N    -7.657201  2.068580  4.217062
H    -4.264130  -1.419133  3.064400
H    -4.042208  -1.055488  1.362145
H    -3.590573  1.393383  1.987557
H    -3.951379  0.992487  3.667017
H    -6.277250  0.269564  3.000784
H    -5.899037  0.565259  1.311638
H    -5.718734  2.947676  1.803825
H    -8.355597  4.403069  3.448016
H    -7.587601  4.315992  1.903921
H    -8.548717  2.322696  4.628889
H    -7.115068  1.365110  4.700760
N    -2.249927  -3.508793  2.191337
C    -3.137223  -3.593257  1.026695
H    -1.907331  -4.400990  2.550531
H    -2.948156  -2.775623  0.324793
H    -4.191713  -3.600668  1.328605
H    -2.921416  -4.533438  0.509765
Ba    1.266091  -1.798940  4.427029
