37
Energy: -246335.080414 eV PBE+vdW (tier 2 basis)
C    1.146170  -0.219190  0.509215
C    0.354683  -0.563486  1.731291
O    0.648202  -1.581549  2.421121
H    0.804301  0.687146  -0.001380
H    1.097906  -1.065233  -0.191085
H    2.203257  -0.096653  0.781519
N    -0.670855  0.249376  2.056896
C    -1.676571  0.117243  3.135667
C    -1.036349  0.196070  4.541769
O    -0.363281  -0.764652  5.016074
H    -0.785021  1.057024  1.451286
H    -2.305643  1.010777  3.020729
C    -2.573274  -1.134692  2.996242
C    -3.488470  -1.168920  1.754622
C    -4.829561  -0.435845  1.923066
N    -5.668505  -0.654600  0.739486
C    -6.801193  0.012967  0.438844
N    -7.370450  -0.161948  -0.757804
N    -7.336662  0.871355  1.316062
H    -3.177103  -1.221117  3.912638
H    -1.927689  -2.021672  2.975653
H    -3.704147  -2.226668  1.541218
H    -2.958946  -0.781566  0.870821
H    -4.682940  0.648818  2.042926
H    -5.336085  -0.813525  2.827766
H    -5.470047  -1.477455  0.178037
H    -8.317453  0.151722  -0.943302
H    -6.881266  -0.611672  -1.523310
H    -8.110751  1.469644  1.045920
H    -7.152327  0.795856  2.308661
N    -1.256080  1.302974  5.238452
C    -0.766999  1.551162  6.598260
H    -1.779282  2.053630  4.795528
H    -1.470208  2.216738  7.108015
H    0.219920  2.031270  6.568864
H    -0.701005  0.604951  7.142147
Ba    1.228179  -2.585091  4.566387
