37
Energy: -246334.690634 eV PBE+vdW (tier 2 basis)
C    0.191123  0.266316  -0.686227
C    -0.180851  0.611716  0.721003
O    0.331908  -0.012372  1.692878
H    -0.313328  0.876521  -1.442693
H    -0.044232  -0.792621  -0.863859
H    1.277513  0.372037  -0.810857
N    -1.075459  1.605388  0.902622
C    -1.686481  2.101810  2.156442
C    -0.623459  2.689522  3.111616
O    0.102431  1.931202  3.822609
H    -1.396490  2.054844  0.050091
H    -2.324448  2.932128  1.831040
C    -2.569411  1.056744  2.875932
C    -3.844076  0.625862  2.119818
C    -5.071409  1.519917  2.363041
N    -6.248725  0.932492  1.713254
C    -7.443178  1.534732  1.541444
N    -8.371336  0.948625  0.778715
N    -7.690890  2.725624  2.101100
H    -2.835263  1.461051  3.864694
H    -1.962559  0.163703  3.070598
H    -4.093999  -0.390652  2.458975
H    -3.647599  0.546362  1.039652
H    -4.920622  2.531184  1.954279
H    -5.239532  1.612673  3.449642
H    -6.215716  -0.062344  1.511350
H    -9.337794  1.257501  0.790921
H    -8.146797  0.179563  0.157678
H    -8.536161  3.238136  1.871021
H    -7.181319  3.042306  2.916577
N    -0.494793  4.007537  3.199057
C    -1.202790  5.066099  2.466535
H    0.196652  4.315835  3.883891
H    -0.710509  6.016105  2.693643
H    -2.249104  5.142207  2.788210
H    -1.143450  4.909727  1.383534
Ba    1.491790  -0.095978  3.840255
