37
Energy: -246334.273970 eV PBE+vdW (tier 2 basis)
C    -1.117139  0.775464  -0.564663
C    -0.625764  0.388332  0.790431
O    0.511934  -0.138780  0.948273
H    -0.784814  0.013007  -1.280902
H    -0.657592  1.723963  -0.884693
H    -2.205675  0.874308  -0.618620
N    -1.403780  0.597334  1.889574
C    -2.069231  1.875195  2.143691
C    -0.949072  2.921655  2.443901
O    0.251566  2.523035  2.595376
H    -0.993675  0.187634  2.729992
H    -2.571648  2.190734  1.216310
C    -3.133271  1.736089  3.257369
C    -4.337041  0.885004  2.803441
C    -5.616346  1.011175  3.647899
N    -5.599302  0.230535  4.890894
C    -6.699423  -0.241006  5.515773
N    -6.560774  -1.106521  6.527938
N    -7.921288  0.132430  5.124380
H    -3.479789  2.740193  3.536652
H    -2.651320  1.323941  4.159183
H    -4.059469  -0.174572  2.708792
H    -4.624982  1.210257  1.791917
H    -6.448948  0.630971  3.040780
H    -5.820919  2.073420  3.865137
H    -4.730995  0.163353  5.410437
H    -7.338600  -1.328377  7.140368
H    -5.706424  -1.632884  6.666190
H    -8.746699  -0.351267  5.463177
H    -8.079114  0.973365  4.582771
N    -1.237038  4.212915  2.505403
C    -2.507780  4.905127  2.269742
H    -0.442639  4.811956  2.734782
H    -2.297513  5.836651  1.733036
H    -2.996905  5.154858  3.220063
H    -3.178554  4.300451  1.652600
Ba    2.301314  1.153838  2.089595
