37
Energy: -246335.183764 eV PBE+vdW (tier 2 basis)
C    0.261337  -0.128102  -0.333341
C    0.324373  0.473049  1.032170
O    0.649186  1.684579  1.200375
H    -0.496526  0.413413  -0.918412
H    0.013964  -1.194785  -0.333738
H    1.220738  0.019521  -0.846504
N    0.013590  -0.305774  2.086524
C    -0.108358  0.147008  3.483505
C    1.305367  0.400627  4.072372
O    1.832882  1.540734  3.918122
H    -0.218593  -1.276062  1.887062
H    -0.580253  1.140910  3.460977
C    -1.025392  -0.823056  4.258711
C    -1.409346  -0.330178  5.666294
C    -2.185148  -1.336410  6.534456
N    -3.597982  -1.475467  6.162556
C    -4.583704  -1.855085  7.004438
N    -5.858850  -1.747554  6.613252
N    -4.299210  -2.315791  8.226385
H    -0.561632  -1.823303  4.321252
H    -1.924708  -0.956173  3.636878
H    -1.981342  0.607569  5.599394
H    -0.497715  -0.090717  6.233645
H    -2.156042  -0.973489  7.570650
H    -1.683593  -2.319190  6.511186
H    -3.847851  -1.433342  5.180419
H    -6.606860  -2.203228  7.125540
H    -6.131468  -1.158437  5.835302
H    -5.030588  -2.435111  8.920008
H    -3.388697  -2.692389  8.459826
N    1.934510  -0.585551  4.693257
C    3.288122  -0.498365  5.251729
H    1.464777  -1.484443  4.758923
H    3.472489  0.519556  5.605687
H    4.035359  -0.765872  4.493357
H    3.368857  -1.196382  6.090095
Ba    2.031307  3.385286  2.267645
