37
Energy: -246333.549537 eV PBE+vdW (tier 2 basis)
C    -0.824191  -1.321046  0.184682
C    -0.711125  -0.120846  1.071959
O    0.296849  0.626117  1.060612
H    -1.805503  -1.806090  0.217437
H    -0.066452  -2.057633  0.489885
H    -0.593274  -1.031620  -0.848038
N    -1.750427  0.147777  1.901859
C    -1.759092  1.102249  3.022833
C    -1.770968  2.570475  2.572981
O    -2.615814  3.391134  3.113332
H    -2.547061  -0.480241  1.855000
H    -2.748080  0.958329  3.472204
C    -0.716760  0.775450  4.163811
C    0.486858  1.695404  4.450057
C    1.796086  1.472020  3.682174
N    2.390337  0.154055  3.955561
C    3.131153  -0.570167  3.085999
N    2.923377  -0.482523  1.769170
N    4.061635  -1.406506  3.562124
H    -0.370154  -0.250637  3.979075
H    -1.302724  0.716995  5.089265
H    0.706434  1.599676  5.524673
H    0.219759  2.756284  4.324749
H    2.511786  2.253664  3.981074
H    1.644584  1.561922  2.605402
H    2.554233  -0.058586  4.936587
H    3.590476  -0.883895  1.120154
H    2.072119  -0.063686  1.384812
H    4.425700  -1.322189  4.504479
H    4.481820  -2.118660  2.974638
N    -0.916281  2.958899  1.660003
C    -0.810377  4.306551  1.109736
H    -0.287180  2.193607  1.311573
H    -0.603865  5.037724  1.902352
H    -1.729390  4.582571  0.574990
H    0.017104  4.326039  0.395376
Ba    -4.245489  4.921075  3.830153
