37
Energy: -246334.023042 eV PBE+vdW (tier 2 basis)
C    -2.100740  1.606758  -0.081016
C    -1.200152  1.120315  1.002965
O    -0.459829  1.965250  1.646906
H    -1.680558  2.502095  -0.549348
H    -3.074530  1.869411  0.362443
H    -2.281111  0.852738  -0.854209
N    -1.151360  -0.159702  1.330157
C    -2.099405  -1.212602  0.903695
C    -3.503034  -0.799677  1.446636
O    -3.551288  -0.205008  2.522292
H    -0.573073  -0.383204  2.139892
H    -2.066899  -1.274728  -0.192326
C    -1.623170  -2.549972  1.513108
C    -2.444924  -3.778207  1.090918
C    -1.876972  -5.067569  1.702823
N    -2.639480  -6.236918  1.252679
C    -2.698210  -7.426290  1.880997
N    -3.567869  -8.352494  1.459544
N    -1.915442  -7.680624  2.936209
H    -1.652255  -2.449279  2.610521
H    -0.571557  -2.698324  1.220377
H    -2.439531  -3.865971  -0.007492
H    -3.491591  -3.667709  1.408123
H    -1.945103  -5.017682  2.799421
H    -0.814040  -5.178100  1.429311
H    -3.027540  -6.205563  0.314736
H    -3.499552  -9.317703  1.763032
H    -4.332896  -8.121540  0.836775
H    -2.064624  -8.505705  3.506910
H    -1.067162  -7.155822  3.107079
N    -4.602161  -1.106860  0.720657
C    -4.739206  -1.734380  -0.589416
H    -5.466789  -0.841765  1.191639
H    -5.013470  -2.795217  -0.507825
H    -3.813868  -1.656317  -1.169269
H    -5.527359  -1.221931  -1.152743
Ba    0.414164  3.850183  2.707934
