37
Energy: -246334.088744 eV PBE+vdW (tier 2 basis)
C    -0.294432  0.736582  -0.710316
C    -0.017131  0.952468  0.740252
O    1.177001  1.326064  1.098221
H    -0.164171  1.684205  -1.252207
H    -1.298520  0.355968  -0.913101
H    0.437886  0.026043  -1.116801
N    -0.932907  0.784263  1.667827
C    -2.373427  0.498103  1.555869
C    -2.940205  1.198765  2.825292
O    -2.228618  1.212480  3.834626
H    -0.705938  0.960477  2.664581
H    -2.767478  0.950356  0.635682
C    -2.643149  -1.028763  1.568590
C    -4.126646  -1.419757  1.379876
C    -4.921619  -1.770407  2.645242
N    -4.597048  -3.125171  3.117859
C    -5.051443  -3.670474  4.263417
N    -4.660749  -4.902697  4.611051
N    -5.858528  -2.975506  5.073046
H    -2.241012  -1.443664  2.505113
H    -2.049303  -1.469545  0.755833
H    -4.189974  -2.269490  0.683456
H    -4.672427  -0.615607  0.866102
H    -5.996197  -1.705695  2.407639
H    -4.706396  -1.058279  3.455425
H    -4.258385  -3.778999  2.417923
H    -5.124414  -5.414246  5.353715
H    -3.923280  -5.387789  4.114556
H    -6.113722  -3.334050  5.986806
H    -6.378817  -2.174082  4.739257
N    -4.180092  1.708257  2.738549
C    -4.837594  2.401434  3.848724
H    -4.625799  1.750746  1.827473
H    -5.895006  2.117729  3.886239
H    -4.767218  3.489550  3.724359
H    -4.341989  2.118648  4.781494
Ba    3.320745  2.155636  1.445745
