21
Energy: -239610.210584 eV PBE+vdW (tier 2 basis)
N    0.896184  -0.363004  -0.131480
C    -0.012517  -0.529968  0.977649
C    0.554900  -0.658831  2.401807
O    -0.178594  -0.790751  3.385588
H    1.556996  -1.136714  -0.211966
H    1.440528  0.495893  -0.060716
H    -0.611919  0.396890  1.037568
C    -0.974589  -1.732146  0.718012
C    -2.441159  -1.364812  0.474190
C    -3.281665  -0.935227  1.646828
O    -4.562348  -0.760538  1.444606
N    -2.770921  -0.747827  2.832273
H    -0.907687  -2.480854  1.519100
H    -0.616257  -2.222748  -0.194868
H    -2.968652  -2.227007  0.034402
H    -2.516655  -0.564811  -0.282991
H    -1.716598  -0.820109  3.046762
H    -3.381748  -0.458927  3.594150
O    1.873620  -0.599230  2.484432
H    2.143492  -0.672935  3.424396
Ba    -6.762953  -0.565400  0.858530
