21
Energy: -239611.617551 eV PBE+vdW (tier 2 basis)
N    0.747220  1.103261  0.142914
C    0.219625  0.888553  1.546165
C    1.465810  1.230152  2.431814
O    1.238721  1.408934  3.682825
H    0.544242  0.336142  -0.508007
H    1.804361  1.170591  0.355546
H    -0.579957  1.615311  1.735773
C    -0.296516  -0.559984  1.675115
C    -0.598861  -1.089287  3.094090
C    -1.655390  -0.351510  3.901321
O    -1.343581  0.336047  4.911809
N    -2.927892  -0.460900  3.523319
H    0.463526  -1.238182  1.256359
H    -1.191183  -0.661492  1.042102
H    0.318346  -1.106536  3.692184
H    -0.917832  -2.136568  2.983847
H    -3.217089  -1.076984  2.770638
H    -3.659925  -0.012544  4.069274
O    2.547683  1.302763  1.846473
H    0.431016  1.982127  -0.282046
Ba    0.555675  1.577106  5.932482
