21
Energy: -239609.878184 eV PBE+vdW (tier 2 basis)
N    0.243763  -0.374881  0.146077
C    -0.132471  -0.201358  1.528710
C    0.997206  -0.289378  2.566015
O    2.127087  -0.642342  2.388870
H    0.764503  -1.244167  0.011403
H    0.853788  0.378147  -0.172776
H    -0.523571  0.826347  1.630162
C    -1.251492  -1.216040  1.905355
C    -2.661688  -0.652176  1.743471
C    -3.125793  0.327594  2.783031
O    -4.336513  0.795274  2.706304
N    -2.344808  0.709579  3.766786
H    -1.120013  -1.616828  2.920232
H    -1.152973  -2.075454  1.230748
H    -3.410437  -1.462152  1.740159
H    -2.759372  -0.156398  0.761292
H    -1.358745  0.403886  3.855668
H    -2.685336  1.372750  4.459264
O    0.510340  0.118685  3.806155
H    1.242031  0.048189  4.452458
Ba    -6.512494  1.397196  2.244614
