21
Energy: -239610.584785 eV PBE+vdW (tier 2 basis)
N    0.465293  0.474068  -0.074860
C    0.210949  0.019815  1.319423
C    1.499273  0.163161  2.125899
O    2.352602  1.007291  1.791539
H    -0.520718  0.688584  -0.398512
H    0.775845  -0.331205  -0.631140
H    -0.455452  0.788142  1.754152
C    -0.519438  -1.334718  1.453523
C    -1.734229  -1.530945  0.510828
C    -2.648872  -0.315748  0.361502
O    -2.192594  0.779826  -0.028690
N    -3.947623  -0.482242  0.640009
H    -0.874352  -1.431184  2.492994
H    0.180806  -2.164358  1.270400
H    -2.286068  -2.415001  0.853168
H    -1.384164  -1.773840  -0.503895
H    -4.336153  -1.373389  0.925305
H    -4.589601  0.291587  0.489916
O    1.717419  -0.535977  3.210187
H    1.012010  -1.189323  3.392357
Ba    2.286187  2.493366  -0.177395
