21
Energy: -239609.877118 eV PBE+vdW (tier 2 basis)
N    -0.398306  0.210328  0.075314
C    -0.569235  0.136277  1.510807
C    0.722841  0.391295  2.307510
O    1.835827  0.124477  1.949102
H    0.416974  -0.327180  -0.226731
H    -0.252372  1.170520  -0.235161
H    -1.298260  0.908576  1.800478
C    -1.137106  -1.266836  1.840891
C    -1.408015  -1.602902  3.331850
C    -2.489986  -0.764192  3.944198
O    -3.715976  -1.188319  3.970876
N    -2.187496  0.417978  4.431148
H    -0.425027  -2.021355  1.476548
H    -2.049429  -1.384937  1.240031
H    -0.487961  -1.486630  3.920679
H    -1.710348  -2.654530  3.407945
H    -1.217284  0.766553  4.345844
H    -2.898916  1.028656  4.825197
O    0.460623  0.976142  3.544210
H    1.326681  1.135479  3.975124
Ba    -5.767287  -2.240784  3.898926
