21
Energy: -239610.848273 eV PBE+vdW (tier 2 basis)
N    -0.006777  -1.653186  0.739002
C    -0.114995  -0.370577  1.514820
C    1.272476  0.183759  1.913658
O    1.531141  0.631761  3.003093
H    0.602796  -2.292956  1.262453
H    0.541962  -1.442984  -0.103172
H    -0.533127  0.370585  0.814870
C    -1.056539  -0.427963  2.726946
C    -0.699815  -1.357142  3.896931
C    -1.176940  -2.787541  3.795200
O    -1.758288  -3.228333  2.749787
N    -0.983920  -3.587471  4.832328
H    -2.093646  -0.614704  2.396064
H    -1.083526  0.593816  3.126802
H    -1.127574  -0.938988  4.821247
H    0.386865  -1.354107  4.078582
H    -0.537338  -3.259866  5.684619
H    -1.307025  -4.551760  4.810814
O    2.122485  0.102375  0.869198
H    2.981079  0.497749  1.128335
Ba    -2.381196  -3.011408  0.452743
