21
Energy: -239611.551762 eV PBE+vdW (tier 2 basis)
N    -1.155571  1.218248  0.466389
C    -0.669041  0.187922  1.388951
C    0.549218  0.807238  2.109000
O    1.197360  0.187850  2.983349
H    -2.101867  1.540934  0.660434
H    -1.091141  0.958373  -0.517070
H    -1.413286  0.029634  2.186480
C    -0.303669  -1.173508  0.742054
C    -1.303632  -2.304608  0.988298
C    -1.303507  -2.868807  2.398271
O    -0.325110  -2.701274  3.187463
N    -2.359155  -3.580893  2.773619
H    0.690936  -1.494175  1.079721
H    -0.202856  -1.029803  -0.342226
H    -1.060607  -3.149939  0.322194
H    -2.325714  -2.002713  0.714856
H    -3.146615  -3.739851  2.151851
H    -2.377986  -4.041200  3.680106
O    0.828869  2.009787  1.752832
H    0.087798  2.184650  1.036483
Ba    1.646072  -1.787716  4.317128
