21
Energy: -239611.986652 eV PBE+vdW (tier 2 basis)
N    0.494519  0.327369  -0.109393
C    -0.024850  0.279869  1.316733
C    1.219677  0.140754  2.207157
O    2.196310  -0.507095  1.702587
H    1.371602  -0.239892  -0.095837
H    -0.167615  -0.054092  -0.798315
H    -0.561640  1.212281  1.525345
C    -0.937389  -0.955905  1.476165
C    -1.456363  -1.205138  2.916720
C    -0.769564  -2.352914  3.638914
O    0.482716  -2.392047  3.792495
N    -1.543562  -3.320623  4.122629
H    -0.394840  -1.841647  1.112066
H    -1.808082  -0.819205  0.819670
H    -2.536942  -1.383096  2.881950
H    -1.310283  -0.310982  3.542109
H    -2.551859  -3.315135  4.009780
H    -1.130811  -4.096069  4.635297
O    1.157042  0.544618  3.396178
H    0.739779  1.283613  -0.400108
Ba    2.727154  -1.350664  4.142857
