21
Energy: -239611.603301 eV PBE+vdW (tier 2 basis)
N    -0.668370  -0.284853  0.239681
C    0.023584  0.535515  1.283684
C    1.197461  -0.269689  1.856603
O    1.792073  0.158420  2.897589
H    -1.620244  -0.743452  0.731465
H    -0.961041  0.284668  -0.559839
H    0.500150  1.397624  0.788518
C    -0.951629  1.099736  2.333258
C    -1.696401  0.104202  3.245618
C    -2.828896  -0.666966  2.587815
O    -2.732540  -1.119158  1.416715
N    -3.931472  -0.888575  3.300608
H    -1.674533  1.745770  1.814164
H    -0.362512  1.767076  2.974684
H    -2.079121  0.659068  4.112065
H    -1.000928  -0.644905  3.659437
H    -4.058198  -0.524420  4.237526
H    -4.687982  -1.431272  2.891046
O    1.595241  -1.314676  1.233673
H    -0.034634  -1.023181  -0.095268
Ba    3.650990  -1.504935  2.710958
