21
Energy: -239610.187073 eV PBE+vdW (tier 2 basis)
N    0.103730  0.668193  0.416114
C    -0.567632  0.382051  1.661517
C    0.267971  0.386876  2.954824
O    -0.230969  0.505408  4.076573
H    0.889061  0.042007  0.239009
H    0.452609  1.624270  0.374058
H    -1.311874  1.179444  1.820421
C    -1.321465  -0.966283  1.489719
C    -2.101965  -1.548969  2.696419
C    -3.209750  -0.676503  3.223629
O    -4.450371  -0.932333  2.918344
N    -2.898235  0.337035  3.989305
H    -0.592697  -1.735546  1.195382
H    -1.985489  -0.828893  0.625912
H    -1.411788  -1.757093  3.526101
H    -2.540377  -2.507092  2.392369
H    -1.865965  0.524626  4.166900
H    -3.612486  0.959951  4.358722
O    1.572582  0.248687  2.758972
H    2.032791  0.270389  3.624583
Ba    -6.560841  -1.633998  2.365022
