23
Energy: -100684.444072 eV PBE+vdW (tier 2 basis)
C    -1.892984  0.834967  0.112176
C    -0.496474  0.763930  0.634629
O    0.456073  1.323758  0.004906
H    -2.181251  -0.119250  -0.357317
H    -1.947412  1.617243  -0.650839
H    -2.614696  1.041997  0.909900
N    -0.199603  0.100921  1.779799
C    -0.686821  -1.239271  2.138575
C    -0.219650  -2.225536  1.023181
O    0.618380  -1.844631  0.139724
H    0.745377  0.295720  2.108674
H    -0.103083  -1.509333  3.032627
C    -2.169079  -1.338414  2.518473
H    -2.360900  -2.264140  3.076635
H    -2.842687  -1.312949  1.655945
H    -2.424962  -0.516405  3.196678
N    -0.692563  -3.456218  1.061673
C    -0.324996  -4.557370  0.169089
H    -1.377061  -3.666874  1.785406
H    0.522961  -4.257871  -0.449695
H    -1.177337  -4.818748  -0.470322
H    -0.049936  -5.430661  0.771494
Sr    1.856701  -0.234867  -0.976409
