23
Energy: -100683.597773 eV PBE+vdW (tier 2 basis)
C    0.179980  0.235321  0.409641
C    -0.394786  -0.706743  1.427521
O    0.125022  -1.933720  1.418179
H    1.273673  0.153891  0.401290
H    -0.091093  1.280287  0.588114
H    -0.177753  -0.040979  -0.592807
N    -1.327337  -0.443792  2.276671
C    -1.991483  0.849654  2.391941
C    -2.625375  0.758609  3.790064
O    -2.516909  -0.392557  4.362032
H    -1.942606  -0.894818  3.612435
H    -1.275603  1.689435  2.398651
C    -3.068818  1.078147  1.316666
H    -3.797827  0.258815  1.318301
H    -2.605977  1.132681  0.325041
H    -3.605008  2.021669  1.479012
N    -3.244888  1.758793  4.362317
C    -3.891096  1.724799  5.679563
H    -3.288210  2.634204  3.844858
H    -4.970053  1.879204  5.561305
H    -3.476134  2.523357  6.304669
H    -3.707037  0.755526  6.147644
Sr    0.933319  -3.877785  1.339891
