23
Energy: -100685.059858 eV PBE+vdW (tier 2 basis)
C    -0.275309  -0.098985  0.037000
C    -0.200370  -0.295432  1.516359
O    0.869948  -0.717426  2.050484
H    0.548221  0.549897  -0.288239
H    -1.225765  0.324081  -0.303785
H    -0.125032  -1.073279  -0.450468
N    -1.293070  -0.017562  2.244777
C    -1.553486  -0.275631  3.680301
C    -0.703359  0.623568  4.595764
O    0.536514  0.390517  4.761146
H    -2.095724  0.310336  1.714225
H    -2.601823  0.012869  3.813842
C    -1.433951  -1.752188  4.071686
H    -1.701161  -1.885252  5.127412
H    -0.426961  -2.157494  3.916547
H    -2.126138  -2.351351  3.468822
N    -1.279877  1.620281  5.248469
C    -2.682031  2.061307  5.219191
H    -0.653348  2.132928  5.870106
H    -3.003746  2.294641  4.197915
H    -2.755008  2.976705  5.812707
H    -3.344149  1.309867  5.666633
Sr    2.310625  -0.676397  3.797107
