15
Energy: -173806.9335953  eV PBE+vdW (tier 2 basis)
N    0.317474  -0.692795  -0.055313
C    0.059143  -0.306051  1.289626
C    1.147901  0.723225  1.856834
O    0.862975  1.948281  1.765766
H    0.025183  -0.032805  -0.774080
H    1.236238  -1.087917  -0.255443
H    -0.891665  0.240765  1.327935
C    0.015553  -1.530383  2.218923
S    -1.264067  -2.680718  1.524702
H    -0.339246  -1.283320  3.228481
H    0.972619  -2.061054  2.283614
H    -1.226611  -3.619355  2.517011
O    2.233711  0.268698  2.311256
H    -0.492431  -3.415405  0.676169
Cd    2.904222  2.453837  2.594517
