15
Energy: -173807.5200193  eV PBE+vdW (tier 2 basis)
N    0.035144  -0.391278  -0.196541
C    -0.041710  0.139559  1.223163
C    1.367189  0.311224  1.786505
O    2.164380  -0.652002  1.569009
H    -0.859369  -0.783915  -0.530075
H    0.300465  0.359071  -0.855456
H    -0.601701  1.080379  1.208966
C    -0.712303  -0.931901  2.156638
S    -0.134333  -1.174724  3.892078
H    -0.588801  -1.937729  1.731173
H    -1.786730  -0.722257  2.255078
H    -0.553175  0.017313  4.399364
O    1.490261  1.188486  2.684454
H    0.769029  -1.122249  -0.249921
Cd    2.554561  -0.445089  3.848868
