15
Energy: -173807.5134259  eV PBE+vdW (tier 2 basis)
N    2.180839  -0.308337  0.474735
C    2.685440  -0.041490  1.879328
C    4.211218  -0.250696  1.942398
O    4.812104  -0.620295  0.888190
H    1.140811  -0.360033  0.533629
H    2.439379  0.438039  -0.186499
H    2.496937  1.024206  2.080649
C    1.942472  -0.909402  2.916645
S    0.144932  -0.610312  2.803531
H    2.297166  -0.602425  3.910488
H    2.161747  -1.976893  2.793552
H    -0.218443  -1.882667  2.504093
O    4.782374  -0.034810  3.050094
H    2.546572  -1.194818  0.094898
Cd    6.763706  -0.569238  2.119595
