15
Energy: -173807.4491835  eV PBE+vdW (tier 2 basis)
N    2.628966  -6.140340  0.588682
C    2.909050  -7.453099  1.297401
C    4.447333  -7.681574  1.006893
O    5.070709  -8.719188  1.480683
H    1.976682  -6.211210  -0.204114
H    2.292519  -5.398788  1.216964
H    2.775923  -7.274703  2.373486
C    1.926939  -8.535470  0.795746
S    1.742157  -10.108161  1.748990
H    2.173627  -8.875029  -0.221056
H    0.898205  -8.144014  0.778880
H    1.349406  -9.579444  2.943160
O    5.005670  -6.812337  0.354887
H    3.605285  -5.892260  0.216130
Cd    4.234530  -10.418387  2.330272
