15
Energy: -173807.5244649  eV PBE+vdW (tier 2 basis)
N    -0.174481  -1.137098  0.140835
C    -0.258825  -0.140347  1.279876
C    1.154081  0.118557  1.802374
O    1.963046  -0.848521  1.676439
H    0.601989  -1.797809  0.339140
H    -1.052046  -1.653860  -0.019995
H    -0.761852  0.760438  0.907553
C    -1.037998  -0.664502  2.529909
S    -0.179477  -1.466461  3.964106
H    -1.832806  -1.371366  2.247451
H    -1.518906  0.201680  3.001491
H    0.168253  -2.646588  3.384257
O    1.275498  1.085760  2.606726
H    0.061114  -0.658416  -0.743750
Cd    2.360409  -0.357469  3.942595
