15
Energy: -173807.5649614  eV PBE+vdW (tier 2 basis)
N    0.203461  0.011996  0.114220
C    -0.023467  -0.071818  1.610908
C    1.261352  0.344240  2.356784
O    1.202113  0.435580  3.616565
H    -0.564548  -0.531359  -0.339464
H    0.178648  0.979574  -0.237598
H    -0.804938  0.660805  1.858434
C    -0.479046  -1.492912  2.019064
S    -1.880925  -2.070990  1.019952
H    -0.725204  -1.483436  3.088566
H    0.323562  -2.227539  1.863172
H    -2.825971  -1.270538  1.579437
O    2.309243  0.560868  1.674421
H    1.115492  -0.389896  -0.154125
Cd    3.384718  0.990016  3.666546
