15
Energy: -173807.4841319  eV PBE+vdW (tier 2 basis)
N    -0.105114  -0.513326  -0.028168
C    -0.014646  -0.023744  1.416476
C    1.481503  0.130738  1.770936
O    2.313397  0.070822  0.825718
H    -0.964796  -0.189105  -0.494993
H    0.722477  -0.164680  -0.547309
H    -0.432154  0.995685  1.418160
C    -0.811565  -0.938083  2.359519
S    -0.840687  -0.384306  4.083066
H    -0.382952  -1.950457  2.385241
H    -1.849232  -1.018103  1.998711
H    -1.562047  0.749549  3.876874
O    1.778734  0.353157  2.988211
H    -0.085012  -1.543173  -0.087244
Cd    3.980093  0.501029  2.471803
