29
Energy: -106889.182343 eV PBE+vdW (tier 2 basis)
C    0.398139  1.793113  1.573559
C    0.068837  0.367646  1.877591
O    0.984572  -0.512091  1.914928
H    -0.482069  2.441168  1.510999
H    0.960167  1.852000  0.632821
H    1.061703  2.170550  2.365193
N    -1.209202  0.049262  2.121527
C    -1.732645  -1.239193  2.619898
C    -1.855107  -2.234082  1.443205
O    -0.772631  -2.732948  0.972135
H    -1.887122  0.805843  2.056156
H    -0.959803  -1.664224  3.280270
C    -2.988213  -0.922066  3.451317
C    -3.667808  -2.098922  4.179446
C    -5.011363  -2.466695  3.577613
O    -5.296070  -2.306360  2.394137
O    -5.840914  -2.990300  4.472194
H    -3.727597  -0.413078  2.813424
H    -2.672271  -0.185990  4.202305
H    -3.813274  -1.868771  5.240905
H    -3.052552  -3.013745  4.163134
N    -3.029409  -2.531355  0.945817
C    -3.222226  -3.449889  -0.177270
H    -3.900546  -2.220612  1.442541
H    -4.295881  -3.616496  -0.296121
H    -2.721571  -4.406765  0.013397
H    -2.820675  -3.014726  -1.100698
H    -6.682364  -3.232615  4.031309
Sr    1.484897  -2.559662  1.060264
