29
Energy: -106889.39426 eV PBE+vdW (tier 2 basis)
C    -3.740169  -0.674226  -0.039489
C    -2.769841  -0.506378  1.081181
O    -1.536152  -0.713754  0.919954
H    -3.424131  -0.043725  -0.881437
H    -4.770065  -0.422949  0.234295
H    -3.703910  -1.714209  -0.392019
N    -3.242583  -0.116318  2.293491
C    -2.313448  0.074039  3.397823
C    -1.961625  -1.246188  4.116324
O    -0.837044  -1.755309  3.828475
H    -4.243383  0.018241  2.408686
H    -1.386312  0.275430  2.870298
C    -2.484212  1.337913  4.265396
C    -1.543561  2.479326  3.784528
C    -0.062559  2.123960  3.776455
O    0.410763  1.195588  3.099974
O    0.782714  2.825834  4.505426
H    -2.264414  1.100124  5.314908
H    -3.514427  1.717676  4.244254
H    -1.718860  3.369595  4.401878
H    -1.801796  2.759463  2.750893
N    -2.781499  -1.836621  4.974411
C    -4.112762  -1.421795  5.408668
H    -2.427031  -2.712732  5.361558
H    -4.132884  -1.318182  6.500277
H    -4.854275  -2.173735  5.111539
H    -4.385408  -0.460763  4.965378
H    0.350373  3.551503  4.996151
Sr    0.550499  -0.991808  2.041722
