29
Energy: -106889.860444 eV PBE+vdW (tier 2 basis)
C    -1.160963  -0.198278  0.173123
C    -0.894303  -0.212513  1.646223
O    0.273512  -0.355298  2.088470
H    -0.743003  -1.109164  -0.275277
H    -0.625194  0.650080  -0.274980
H    -2.222431  -0.123557  -0.084485
N    -1.953044  -0.073548  2.472171
C    -1.991639  -0.030404  3.947231
C    -1.172287  1.166425  4.493373
O    0.075122  1.075844  4.658129
H    -2.853123  0.035008  2.014230
H    -3.048079  0.173097  4.159328
C    -1.613287  -1.337285  4.720759
C    -1.414550  -2.644226  3.938428
C    -0.005313  -3.183147  3.974715
O    1.012206  -2.498113  4.176263
O    0.049876  -4.479918  3.755527
H    -2.410332  -1.496358  5.455830
H    -0.715541  -1.137671  5.317131
H    -1.670503  -2.539442  2.871064
H    -2.080093  -3.436471  4.302558
N    -1.848540  2.268561  4.791269
C    -1.257085  3.498292  5.320457
H    -2.854036  2.266456  4.641944
H    -1.913689  3.903396  6.097394
H    -1.144895  4.242252  4.521283
H    -0.278095  3.270691  5.749118
H    0.977656  -4.797601  3.767887
Sr    1.814652  -0.268109  3.818838
