29
Energy: -106888.978024 eV PBE+vdW (tier 2 basis)
C    0.922670  -0.816556  0.409847
C    0.493374  0.462429  1.049391
O    1.332067  1.374771  1.308171
H    1.541834  -0.602256  -0.470311
H    0.088162  -1.464448  0.122481
H    1.561548  -1.360976  1.121418
N    -0.812655  0.629550  1.337644
C    -1.406299  1.699555  2.158307
C    -1.422133  3.117969  1.543608
O    -2.022230  4.008141  2.113479
H    -1.425442  -0.148729  1.106936
H    -2.478420  1.460737  2.209441
C    -0.842185  1.623626  3.614142
C    -1.121883  2.795539  4.557479
C    -0.289719  4.023698  4.290947
O    0.690437  4.017072  3.520764
O    -0.554875  5.148083  4.912694
H    0.241020  1.457382  3.567838
H    -1.270329  0.718071  4.061904
H    -0.871200  2.474732  5.584445
H    -2.184078  3.076954  4.578361
N    -0.693415  3.362573  0.365743
C    -1.034692  4.598507  -0.383632
H    -0.613696  2.536551  -0.230615
H    -0.362623  4.687376  -1.244092
H    -0.925313  5.468592  0.272710
H    -2.072133  4.579549  -0.740724
H    -1.339322  5.085777  5.493392
Sr    1.818831  3.613580  1.546191
