29
Energy: -106889.777243 eV PBE+vdW (tier 2 basis)
C    -0.586745  0.685450  0.091882
C    -0.382739  0.313177  1.526390
O    0.708450  -0.180092  1.915752
H    -1.563490  1.135119  -0.114016
H    -0.472056  -0.217362  -0.524164
H    0.203777  1.382945  -0.214705
N    -1.413119  0.520031  2.376253
C    -1.491525  0.144805  3.802025
C    -0.527032  1.018699  4.632927
O    0.702796  0.753186  4.711783
H    -2.256245  0.911671  1.967277
H    -2.509273  0.419362  4.102462
C    -1.359436  -1.389565  3.980853
C    -1.163940  -1.920953  5.410475
C    0.248456  -2.375321  5.729764
O    1.210460  -2.201886  4.973565
O    0.475347  -2.990803  6.875049
H    -0.556412  -1.774070  3.343895
H    -2.283767  -1.814298  3.570188
H    -1.829417  -2.781355  5.580307
H    -1.451742  -1.185918  6.181160
N    -1.023458  2.078553  5.269027
C    -2.397687  2.593213  5.288450
H    -0.323678  2.620711  5.775698
H    -2.724025  2.905021  4.288641
H    -2.415547  3.473009  5.937587
H    -3.098805  1.858359  5.702520
H    -0.334019  -3.128190  7.405063
Sr    2.273428  -0.591827  3.597107
