29
Energy: -106888.721287 eV PBE+vdW (tier 2 basis)
C    1.665904  -0.970702  1.646290
C    0.735568  -0.902829  2.810081
O    1.175106  -1.093628  4.003949
H    2.126458  -1.967881  1.611993
H    2.477766  -0.243658  1.782879
H    1.165602  -0.775941  0.692657
N    -0.543580  -0.649427  2.603008
C    -1.593640  -0.584047  3.614531
C    -2.898977  -0.766560  2.783511
O    -2.878259  -0.356014  1.624022
H    -0.923353  -0.481128  1.657955
H    -1.429606  -1.392705  4.339370
C    -1.583686  0.808032  4.304722
C    -2.350413  0.912852  5.624232
C    -1.702007  0.226091  6.799209
O    -0.554305  -0.255438  6.761760
O    -2.347953  0.132445  7.942293
H    -1.999273  1.539398  3.598459
H    -0.540328  1.110545  4.470762
H    -3.389908  0.561004  5.531508
H    -2.440228  1.977800  5.904387
N    -4.002360  -1.287267  3.363170
C    -4.148405  -2.043661  4.600278
H    -4.798314  -1.309321  2.725426
H    -4.401964  -3.090274  4.385600
H    -4.947166  -1.618127  5.222245
H    -3.216998  -2.038335  5.175325
H    -3.233102  0.548089  7.915649
Sr    1.541931  -1.075062  6.191468
