29
Energy: -106889.232429 eV PBE+vdW (tier 2 basis)
C    0.518021  0.011239  -0.160311
C    0.317632  0.575764  1.216359
O    1.212727  1.275164  1.756508
H    0.719432  0.832608  -0.860586
H    -0.333202  -0.567439  -0.533787
H    1.405001  -0.636877  -0.150644
N    -0.849989  0.276759  1.820091
C    -1.407890  0.576087  3.161400
C    -2.152492  1.924543  3.134139
O    -1.567857  3.053890  3.054895
H    -1.465752  -0.295867  1.249880
H    -2.190020  -0.187795  3.256721
C    -0.466367  0.329526  4.385339
C    0.031083  1.513336  5.250497
C    1.096228  2.314742  4.558204
O    2.311396  2.024722  4.659857
O    0.740546  3.273808  3.732391
H    0.389085  -0.267747  4.045049
H    -1.027479  -0.320105  5.067910
H    0.475026  1.087297  6.158122
H    -0.798331  2.163126  5.560426
N    -3.473769  1.884305  3.162555
C    -4.345197  3.063380  3.142775
H    -3.925171  0.973727  3.183421
H    -3.813162  3.916216  3.572309
H    -5.241358  2.844465  3.731164
H    -4.636751  3.300456  2.111471
H    -0.459151  3.148810  3.370527
Sr    2.818760  2.807860  2.482317
