29
Energy: -106889.105628 eV PBE+vdW (tier 2 basis)
C    0.696802  0.134790  0.348581
C    0.104663  -0.036481  1.706782
O    0.145488  -1.145508  2.307620
H    0.245332  -0.598171  -0.333852
H    1.771492  -0.090196  0.393693
H    0.558736  1.140022  -0.063045
N    -0.488302  1.044151  2.287563
C    -0.961182  0.922028  3.652993
C    -2.437339  1.141419  3.922315
O    -2.963776  0.405084  4.853823
H    -0.354841  1.946329  1.837769
H    -0.883984  -0.156650  3.791629
C    -0.050296  1.571369  4.735570
C    -0.085423  0.809540  6.093965
C    -0.003480  -0.668435  5.794023
O    1.110698  -1.240973  5.641627
O    -1.106551  -1.301465  5.489257
H    -0.304848  2.626345  4.900339
H    0.973235  1.538954  4.339244
H    -0.999126  1.034431  6.657861
H    0.776188  1.119974  6.695071
N    -3.183027  2.023763  3.306211
C    -4.610551  2.268716  3.561356
H    -2.739028  2.601726  2.596878
H    -5.014675  1.460714  4.174730
H    -5.137252  2.312996  2.602254
H    -4.727800  3.224828  4.086230
H    -2.290888  -0.314171  5.198066
Sr    0.308102  -2.789382  4.050796
