29
Energy: -106889.890333 eV PBE+vdW (tier 2 basis)
C    -0.630381  0.330884  -0.221918
C    -0.308305  -0.047669  1.189218
O    0.745409  -0.682692  1.460630
H    -0.713968  -0.587668  -0.819562
H    0.204535  0.908114  -0.640195
H    -1.554935  0.908039  -0.325367
N    -1.191784  0.310194  2.146103
C    -1.164077  -0.028192  3.583094
C    -0.036395  0.742958  4.305704
O    1.178555  0.453090  4.154350
H    -2.007567  0.823542  1.825737
H    -2.112343  0.365146  3.973733
C    -1.192333  -1.566603  3.789833
C    -0.899399  -2.094989  5.202125
C    0.514108  -2.605343  5.409601
O    1.403151  -2.522556  4.555382
O    0.822666  -3.177379  6.558777
H    -0.515143  -2.051323  3.079277
H    -2.200352  -1.885611  3.497161
H    -1.578171  -2.932957  5.426743
H    -1.105301  -1.348519  5.987670
N    -0.422843  1.737160  5.102307
C    0.493392  2.605729  5.843510
H    -1.414602  1.949018  5.162509
H    -0.007360  2.954225  6.751698
H    0.778390  3.473549  5.234430
H    1.392359  2.043619  6.111124
H    0.063729  -3.244970  7.170659
Sr    2.463966  -1.118796  2.967665
