29
Energy: -106889.032709 eV PBE+vdW (tier 2 basis)
C    0.183501  0.372422  1.140812
C    -0.138695  -0.577383  2.243542
O    0.771721  -1.222705  2.840276
H    0.593380  -0.175451  0.280612
H    0.983843  1.036317  1.496658
H    -0.665607  0.982751  0.819231
N    -1.408479  -0.765498  2.670979
C    -2.674196  -0.694867  1.918800
C    -3.737115  -1.331682  2.806476
O    -3.507499  -2.455470  3.404194
H    -1.441380  -1.339900  3.509809
H    -2.937698  0.354455  1.732927
C    -2.639411  -1.430077  0.542496
C    -2.459048  -2.969109  0.542364
C    -1.276740  -3.436227  1.361526
O    -0.139886  -3.588061  0.847791
O    -1.433801  -3.614230  2.650139
H    -1.845938  -0.965534  -0.056145
H    -3.578477  -1.199900  0.019913
H    -2.299119  -3.283917  -0.495621
H    -3.366958  -3.470326  0.904294
N    -4.919632  -0.783760  2.964112
C    -5.405599  0.502898  2.444735
H    -5.571766  -1.336616  3.524585
H    -4.746730  1.323218  2.751775
H    -6.395716  0.680433  2.872601
H    -5.500028  0.475622  1.352567
H    -2.612693  -2.999573  3.089221
Sr    1.103925  -3.557221  2.885565
