29
Energy: -106889.550563 eV PBE+vdW (tier 2 basis)
C    -3.818518  -0.513712  -0.210730
C    -2.883884  -0.372555  0.942634
O    -1.644003  -0.574549  0.815231
H    -4.858774  -0.283456  0.041383
H    -3.759026  -1.540366  -0.597229
H    -3.486331  0.149554  -1.020871
N    -3.391527  -0.013704  2.149626
C    -2.481231  0.176682  3.269429
C    -2.119800  -1.155810  3.965788
O    -0.967657  -1.628649  3.727902
H    -4.389326  0.158960  2.232112
H    -1.555697  0.436447  2.757695
C    -2.693324  1.393148  4.178153
C    -1.376976  1.745828  4.923843
C    -0.193305  2.080639  4.038100
O    0.342437  1.299585  3.225714
O    0.248133  3.307600  4.218157
H    -3.475513  1.247574  4.932722
H    -3.005573  2.241220  3.552147
H    -1.062850  0.900624  5.557411
H    -1.557645  2.596058  5.589794
N    -2.960592  -1.798686  4.764818
C    -4.331865  -1.466211  5.146656
H    -2.584671  -2.668515  5.146332
H    -4.974718  -2.337138  4.973443
H    -4.715717  -0.632656  4.554599
H    -4.378278  -1.199916  6.210210
H    1.032728  3.484992  3.655732
Sr    0.418505  -0.823993  1.985200
