29
Energy: -106888.694013 eV PBE+vdW (tier 2 basis)
C    -0.435749  -1.402988  0.959710
C    -0.845882  -0.623797  2.164117
O    -0.185715  -0.712012  3.248694
H    0.547386  -1.028340  0.636698
H    -1.130143  -1.323375  0.119115
H    -0.297882  -2.459327  1.221519
N    -1.903330  0.201836  2.130879
C    -3.062686  0.189123  1.218371
C    -3.922865  1.398965  1.603913
O    -4.395701  1.449268  2.774445
H    -2.035409  0.742003  2.986388
H    -2.705405  0.276082  0.187710
C    -3.976760  -1.085938  1.362533
C    -3.679672  -2.036526  2.537296
C    -3.355607  -1.456855  3.897938
O    -2.548162  -2.097189  4.639270
O    -3.849692  -0.351791  4.326445
H    -3.892901  -1.678390  0.443652
H    -5.020854  -0.752349  1.407269
H    -2.865942  -2.729904  2.292443
H    -4.565174  -2.678465  2.683071
N    -4.196990  2.345735  0.718094
C    -3.726768  2.472721  -0.665708
H    -4.834317  3.064005  1.063922
H    -2.633466  2.418430  -0.721214
H    -4.031061  3.456730  -1.032740
H    -4.180125  1.712179  -1.313822
H    -4.215934  0.389017  3.580135
Sr    -0.429504  -1.673899  5.340365
