29
Energy: -106888.70626 eV PBE+vdW (tier 2 basis)
C    -0.279611  1.486402  0.477082
C    -1.036829  0.228686  0.762105
O    -1.374832  -0.534694  -0.190025
H    0.644966  1.235151  -0.059969
H    -0.029063  2.064970  1.371930
H    -0.879492  2.112472  -0.198107
N    -1.333333  -0.041295  2.043555
C    -2.107102  -1.140777  2.676391
C    -1.512249  -2.537262  2.411171
O    -1.558430  -3.080204  1.265758
H    -1.009097  0.659980  2.704217
H    -1.964622  -0.945216  3.747406
C    -3.639059  -1.068763  2.477116
C    -4.234260  -1.376864  1.104205
C    -5.749139  -1.145109  1.072409
O    -6.383955  -0.653978  1.968300
O    -6.242466  -1.567231  -0.116467
H    -3.957144  -0.060314  2.776501
H    -4.091126  -1.743718  3.218668
H    -4.091241  -2.439233  0.833376
H    -3.813227  -0.722472  0.323289
N    -0.996697  -3.166974  3.457276
C    -0.441753  -4.521015  3.445197
H    -0.979140  -2.674476  4.346947
H    0.653590  -4.478610  3.498761
H    -0.745359  -5.028767  2.527214
H    -0.821239  -5.069936  4.313935
H    -7.207356  -1.397511  -0.123976
Sr    -1.984084  -2.586589  -0.934587
