29
Energy: -106888.762482 eV PBE+vdW (tier 2 basis)
C    0.370717  0.533783  -0.288620
C    -0.116179  -0.445206  0.713617
O    0.297966  -1.662358  0.570216
H    -0.066313  1.528813  -0.161045
H    0.144086  0.157444  -1.295946
H    1.466174  0.602217  -0.219298
N    -0.935760  -0.054511  1.691834
C    -1.409218  -0.980797  2.717747
C    -2.911060  -1.145839  2.979082
O    -3.297126  -2.352737  3.048508
H    -1.130129  0.942573  1.746319
H    -1.244725  -1.943998  2.242546
C    -0.564567  -0.984622  4.022696
C    0.570821  -2.051836  3.971018
C    -0.085735  -3.350176  3.570069
O    -0.646727  -4.077084  4.436869
O    -0.276059  -3.589137  2.299611
H    -1.215623  -1.208942  4.878178
H    -0.132962  0.008531  4.201560
H    1.021698  -2.145468  4.964985
H    1.355102  -1.770685  3.256670
N    -3.745098  -0.136176  3.173345
C    -3.433302  1.292582  3.234133
H    -4.717242  -0.405956  3.327476
H    -3.540756  1.767752  2.249767
H    -2.427069  1.453321  3.637939
H    -4.136240  1.772433  3.922603
H    0.084983  -2.389538  1.277438
Sr    -2.456891  -4.627050  3.043538
