29
Energy: -106888.822774 eV PBE+vdW (tier 2 basis)
C    -1.630059  -1.874369  0.490819
C    -0.956354  -0.725582  1.181615
O    0.271448  -0.561242  1.164112
H    -1.275617  -2.808849  0.947211
H    -1.310422  -1.895160  -0.558353
H    -2.724021  -1.847324  0.539812
N    -1.769406  0.160548  1.849900
C    -1.316510  1.229915  2.736641
C    -0.486470  2.368892  2.119392
O    -0.676975  3.547278  2.606135
H    -2.771566  0.044028  1.749304
H    -2.239227  1.734438  3.052780
C    -0.571449  0.703036  4.003036
C    -1.489060  0.370554  5.180431
C    -2.068871  1.571474  5.888538
O    -1.828455  2.746595  5.551675
O    -2.869094  1.401599  6.918609
H    0.180217  1.435979  4.328360
H    -0.003972  -0.190726  3.717742
H    -0.937162  -0.214676  5.935941
H    -2.324440  -0.281860  4.871823
N    0.405616  2.100954  1.202832
C    1.275934  3.070179  0.546605
H    0.528265  1.070279  1.021292
H    2.298595  2.978323  0.935552
H    0.906561  4.085151  0.713112
H    1.293652  2.857212  -0.527876
H    -3.007055  0.459977  7.145685
Sr    -1.256714  4.699754  4.431747
