29
Energy: -106889.627954 eV PBE+vdW (tier 2 basis)
C    -0.174165  -1.178657  0.142316
C    -0.171315  -0.734545  1.574234
O    0.884027  -0.302499  2.101172
H    0.572981  -1.972930  0.013615
H    0.145121  -0.335017  -0.484787
H    -1.145356  -1.538415  -0.213010
N    -1.342581  -0.827749  2.239900
C    -1.794972  -0.407463  3.587834
C    -0.955224  0.690689  4.271046
O    0.177974  0.470696  4.776948
H    -2.108834  -1.181198  1.671812
H    -2.777705  0.046209  3.391214
C    -2.126331  -1.605828  4.519577
C    -1.007527  -2.372601  5.263502
C    0.027571  -3.032662  4.385821
O    1.138189  -2.530086  4.175799
O    -0.239971  -4.186831  3.795196
H    -2.730285  -2.307686  3.924787
H    -2.804926  -1.223792  5.295737
H    -1.500943  -3.140492  5.878601
H    -0.480230  -1.703374  5.951253
N    -1.544511  1.878352  4.376629
C    -0.959564  3.027757  5.068149
H    -2.454712  2.008532  3.944497
H    -0.399325  2.683797  5.942700
H    -1.767890  3.690329  5.390438
H    -0.289464  3.582876  4.398530
H    -1.097854  -4.561631  4.072567
Sr    2.204883  -0.425700  3.990817
