29
Energy: -106889.104926 eV PBE+vdW (tier 2 basis)
C    -0.430800  0.545122  0.205988
C    -0.278895  0.029681  1.597659
O    0.576194  -0.885117  1.862039
H    -0.720114  -0.280025  -0.459296
H    0.541970  0.912867  -0.148116
H    -1.172698  1.346114  0.131369
N    -1.047447  0.541181  2.556661
C    -0.880642  0.215067  3.975690
C    -1.285456  -1.249525  4.253290
O    -0.350481  -2.095087  4.457974
H    -1.647831  1.387351  2.366830
H    0.199136  0.232300  4.197487
C    -1.557360  1.246206  4.902025
C    -1.129059  2.710754  4.695488
C    -1.873549  3.425745  3.583229
O    -2.324756  2.876194  2.577766
O    -1.982717  4.728562  3.809328
H    -1.300449  0.955476  5.929766
H    -2.648940  1.184106  4.831608
H    -0.051460  2.797998  4.477426
H    -1.282221  3.273721  5.624405
N    -2.544805  -1.660152  4.259926
C    -3.788723  -0.939245  3.969586
H    -2.649640  -2.647154  4.498084
H    -3.612795  -0.111607  3.278045
H    -4.251060  -0.568987  4.893185
H    -4.480452  -1.641821  3.493153
H    -2.443584  5.152506  3.054930
Sr    1.454949  -2.549381  3.108556
