29
Energy: -106888.701588 eV PBE+vdW (tier 2 basis)
C    0.157665  -0.545204  0.247492
C    0.172605  -0.207162  1.701249
O    1.211714  0.285570  2.242405
H    1.002459  -1.204772  0.011018
H    0.307873  0.381925  -0.324974
H    -0.774143  -1.017055  -0.080840
N    -0.936872  -0.420233  2.421563
C    -1.166613  0.011689  3.811613
C    -0.480247  -0.964862  4.793820
O    0.773126  -0.854357  4.989208
H    -1.734361  -0.824161  1.934464
H    -0.631620  0.965993  3.941718
C    -2.663927  0.249401  4.048862
C    -3.212125  1.442931  3.253234
C    -4.700049  1.700345  3.475723
O    -5.183976  2.795514  3.596324
O    -5.400767  0.533767  3.491134
H    -2.814031  0.437479  5.121998
H    -3.245827  -0.653306  3.797726
H    -3.079754  1.295786  2.169145
H    -2.690712  2.370907  3.518878
N    -1.210627  -1.879698  5.402426
C    -0.722152  -2.872370  6.360635
H    -2.209383  -1.883764  5.204080
H    -1.321243  -2.814083  7.276612
H    0.324927  -2.667536  6.592140
H    -0.818616  -3.878477  5.933968
H    -6.346246  0.764839  3.596966
Sr    2.599485  0.152916  4.035187
