29
Energy: -106888.929952 eV PBE+vdW (tier 2 basis)
C    0.580624  1.015224  0.391414
C    0.396325  0.458023  1.766975
O    1.402611  0.052868  2.426937
H    1.016596  0.232190  -0.245491
H    1.306206  1.838386  0.422798
H    -0.347444  1.370684  -0.067812
N    -0.849686  0.401552  2.259140
C    -1.366063  -0.235371  3.488938
C    -0.951086  0.485212  4.774218
O    0.278507  0.580588  5.107224
H    -1.569195  0.770581  1.643596
H    -2.454082  -0.155589  3.400224
C    -1.061147  -1.748115  3.598946
C    -1.816208  -2.605187  2.579490
C    -3.324068  -2.581740  2.780528
O    -3.909353  -1.796121  3.508670
O    -3.924931  -3.523767  2.047563
H    -1.342802  -2.064073  4.613933
H    0.017454  -1.931421  3.492550
H    -1.477166  -3.648218  2.641738
H    -1.605373  -2.297406  1.543039
N    -1.885068  0.956366  5.581936
C    -3.348199  0.950194  5.429745
H    -1.520050  1.386464  6.432771
H    -3.784882  1.045799  6.428163
H    -3.696708  0.011567  4.986381
H    -3.675642  1.804589  4.823673
H    -4.891820  -3.470463  2.195815
Sr    2.402797  0.129875  4.458310
