29
Energy: -106888.490789 eV PBE+vdW (tier 2 basis)
C    -0.562631  -0.158205  -0.462296
C    -1.072288  -0.255487  0.943769
O    -1.889320  -1.113381  1.308180
H    -1.411598  -0.177254  -1.155583
H    0.040942  -1.052725  -0.671224
H    0.049234  0.730749  -0.650907
N    -0.590101  0.659947  1.851233
C    -0.814064  0.503037  3.288518
C    -2.233559  0.992923  3.679269
O    -2.438967  1.961618  4.497769
H    0.036556  1.390730  1.529185
H    -0.825301  -0.584851  3.478285
C    0.369798  1.127187  4.043467
C    0.566036  0.703154  5.530142
C    -0.375008  1.404836  6.446955
O    -1.366373  0.921717  6.989116
O    -0.230734  2.755395  6.633134
H    0.349425  2.223981  3.949974
H    1.274618  0.790082  3.520806
H    1.600343  0.941356  5.822604
H    0.427055  -0.376804  5.659226
N    -3.213066  0.329116  3.110903
C    -4.630339  0.620557  3.274508
H    -2.892244  -0.417738  2.434642
H    -5.183401  0.109309  2.481574
H    -4.818404  1.698683  3.198060
H    -4.999679  0.243715  4.239660
H    0.573457  3.125496  6.219111
Sr    -2.942308  2.725712  6.557108
