29
Energy: -106888.366422 eV PBE+vdW (tier 2 basis)
C    -0.329861  1.240811  0.046334
C    -0.688476  0.594341  1.351435
O    -0.084722  0.960045  2.427833
H    -0.880130  0.827750  -0.804813
H    0.745969  1.111542  -0.133692
H    -0.539504  2.320630  0.092096
N    -1.642867  -0.313695  1.338898
C    -2.164699  -1.211172  2.363898
C    -3.238233  -2.024219  1.555385
O    -3.586098  -1.585836  0.454256
H    -2.185709  -0.497244  0.464866
H    -1.361570  -1.890113  2.690296
C    -2.767821  -0.559512  3.635674
C    -3.561858  0.768483  3.435757
C    -2.673198  1.951097  3.633147
O    -2.308553  2.764426  2.790265
O    -2.065807  2.110632  4.858849
H    -1.959828  -0.416625  4.365722
H    -3.450777  -1.290674  4.085077
H    -4.374613  0.815689  4.177410
H    -4.020379  0.837607  2.442393
N    -3.714613  -3.134113  2.133943
C    -4.717888  -3.996956  1.505409
H    -3.281480  -3.468161  2.989333
H    -5.170530  -3.453775  0.671971
H    -5.489588  -4.259047  2.237352
H    -4.251120  -4.914326  1.125506
H    -2.381263  1.484010  5.539415
Sr    0.064870  2.977255  3.451930
