29
Energy: -106888.611604 eV PBE+vdW (tier 2 basis)
C    0.251222  0.142303  0.680886
C    -0.122524  0.181387  2.124289
O    0.796515  0.148671  3.021513
H    0.792664  -0.787449  0.458820
H    0.953157  0.965243  0.486262
H    -0.602524  0.237787  0.004189
N    -1.381219  0.246397  2.530451
C    -2.651653  0.013508  1.853930
C    -3.688154  0.516843  2.902443
O    -3.334721  0.531473  4.091772
H    -1.589387  0.374032  3.540639
H    -2.719518  0.580125  0.916548
C    -2.872934  -1.495280  1.563267
C    -2.717423  -2.433132  2.799343
C    -1.291351  -2.797782  3.115452
O    -0.641100  -2.319195  4.061262
O    -0.651525  -3.661649  2.338432
H    -2.198514  -1.805532  0.751309
H    -3.890789  -1.627232  1.174995
H    -3.266451  -3.364217  2.592316
H    -3.161996  -1.979609  3.693638
N    -4.914756  0.852195  2.482717
C    -5.396814  0.983961  1.106995
H    -5.542149  1.138381  3.231880
H    -4.807981  1.715765  0.538582
H    -6.428359  1.344549  1.144444
H    -5.403159  0.022815  0.576792
H    -1.232144  -4.059289  1.660103
Sr    1.209553  -1.116796  4.842036
