29
Energy: -106889.897645 eV PBE+vdW (tier 2 basis)
C    -1.104168  -0.099288  -0.139711
C    -0.702866  -0.277080  1.290064
O    0.443732  -0.705722  1.589402
H    -0.379331  0.558319  -0.637415
H    -2.110884  0.311167  -0.268619
H    -1.048570  -1.074319  -0.643665
N    -1.614461  0.031201  2.238082
C    -1.485692  -0.153860  3.697091
C    -0.436677  0.824698  4.266800
O    0.794823  0.549415  4.244372
H    -2.516107  0.356392  1.902059
H    -2.459594  0.145091  4.102068
C    -1.270809  -1.643808  4.057994
C    -0.875782  -1.955345  5.511273
C    0.517978  -2.511242  5.683494
O    1.436320  -2.405396  4.853259
O    0.675109  -3.130917  6.834293
H    -0.542663  -2.091672  3.373334
H    -2.218584  -2.147496  3.831429
H    -1.568706  -2.673109  5.968735
H    -0.928932  -1.070395  6.168412
N    -0.856135  1.975429  4.786534
C    -2.222095  2.502062  4.891072
H    -0.104726  2.576003  5.125761
H    -2.168254  3.474295  5.388552
H    -2.860062  1.849388  5.499488
H    -2.669939  2.653552  3.901308
H    1.590268  -3.470949  6.926801
Sr    2.195920  -0.941231  3.108171
