20
Energy: -240151.598879 eV PBE+vdW (tier 2 basis)
N    -0.400219  -0.508691  0.135455
C    0.005170  0.199090  1.406221
C    1.536845  0.105932  1.401006
O    2.108122  -0.683249  0.672958
H    -0.497170  0.131611  -0.661686
H    0.395985  -1.156817  -0.080246
H    -0.339844  1.237868  1.355133
C    -0.598337  -0.517733  2.644001
C    -2.086001  -0.727170  2.595375
C    -2.951450  0.141211  3.172116
O    -2.720985  1.287496  3.745890
O    -4.344974  -0.138522  3.267230
H    -0.316261  0.094999  3.510517
H    -0.092330  -1.487425  2.766491
H    -2.472835  -1.685181  2.244736
H    -1.291494  -1.008915  0.265511
O    2.091301  0.923908  2.287829
H    3.064417  0.799622  2.278997
H    -4.570530  -1.023566  2.931875
Ba    -4.665210  2.018327  4.840158
