20
Energy: -240151.869005 eV PBE+vdW (tier 2 basis)
N    0.025893  0.940710  0.884206
C    0.108048  0.054253  2.019021
C    1.546105  -0.163023  2.419652
O    1.908969  -1.011394  3.297719
H    -0.941081  1.088585  0.599372
H    0.449047  1.854243  1.046380
H    -0.347720  0.449109  2.962026
C    -0.586544  -1.308523  1.689255
C    -1.577237  -1.854104  2.722160
C    -1.062642  -2.526367  3.965285
O    -1.860000  -3.225827  4.664473
O    0.174038  -2.426852  4.366675
H    0.156187  -2.071018  1.416223
H    -1.148318  -1.128326  0.764513
H    -2.238460  -2.592614  2.243970
H    -2.268920  -1.065566  3.068562
O    2.439978  0.582416  1.857370
H    3.345082  0.388266  2.189258
H    1.110897  -1.605903  3.707828
Ba    -0.376556  -4.081229  6.395439
