20
Energy: -240151.823358 eV PBE+vdW (tier 2 basis)
N    -0.755765  0.090769  0.007204
C    -0.227385  0.193643  1.363137
C    1.302242  0.021203  1.310938
O    1.915086  -0.899994  1.884580
H    -1.728613  0.399304  -0.025274
H    -0.248207  0.696147  -0.640215
H    -0.409972  1.165633  1.868189
C    -0.716705  -0.962547  2.231340
C    -2.174022  -1.252219  2.560567
C    -2.188748  -2.535717  3.384592
O    -1.137145  -3.150466  3.649728
O    -3.315506  -3.029452  3.836690
H    -0.198179  -0.854735  3.200232
H    -0.362158  -1.857597  1.689491
H    -2.783185  -1.408611  1.655991
H    -2.653261  -0.445709  3.137537
O    1.898257  0.939497  0.591515
H    2.869709  0.800749  0.558452
H    -4.100134  -2.499057  3.591579
Ba    1.379607  -3.071728  3.257062
