20
Energy: -240151.453243 eV PBE+vdW (tier 2 basis)
N    -0.110167  -0.452731  0.141756
C    0.328268  -0.402454  1.584149
C    1.547123  -1.333510  1.636023
O    1.764666  -2.124913  0.740475
H    0.225375  -1.375711  -0.221518
H    0.332908  0.277012  -0.429871
H    0.597373  0.631579  1.827599
C    -0.816474  -0.913626  2.509876
C    -2.147605  -0.270220  2.262714
C    -2.766097  0.673266  3.014810
O    -3.953039  1.179225  2.832543
O    -2.213236  1.251727  4.186446
H    -0.446812  -0.786424  3.538758
H    -0.903598  -2.003590  2.374153
H    -2.786634  -0.683685  1.480440
H    -1.134054  -0.348908  0.070266
O    2.237941  -1.180920  2.761334
H    2.983471  -1.818672  2.774691
H    -1.373760  0.839772  4.452997
Ba    -4.683506  2.485505  4.598733
