20
Energy: -240151.927216 eV PBE+vdW (tier 2 basis)
N    -0.251840  -0.147672  0.495693
C    0.184037  0.016739  1.910829
C    1.696835  0.227997  1.934304
O    2.281356  0.678936  0.930180
H    -0.230663  -1.147186  0.261011
H    -1.263908  0.106990  0.538232
H    -0.222235  0.994766  2.228293
C    -0.347257  -1.043477  2.901723
C    -1.855808  -1.372421  2.790555
C    -2.769298  -0.175330  2.590773
O    -2.630811  0.638101  1.677980
O    -3.746215  -0.119630  3.487230
H    -0.156927  -0.681309  3.925701
H    0.208305  -1.986269  2.783403
H    -2.161399  -1.932205  3.681168
H    -2.036293  -2.039581  1.933408
O    2.406645  0.005512  3.008939
H    1.883309  -0.366949  3.747648
H    -4.336752  0.636661  3.282956
Ba    1.336118  1.263560  -1.261764
