20
Energy: -240151.673551 eV PBE+vdW (tier 2 basis)
N    -0.323051  -0.292218  0.081745
C    -0.051704  -0.268836  1.564379
C    1.470653  -0.055390  1.648756
O    2.139548  0.084379  0.641035
H    -1.084851  0.325496  -0.215050
H    0.589878  -0.011143  -0.360575
H    -0.544235  0.610333  2.000420
C    -0.570174  -1.563306  2.229057
C    -0.154123  -2.811537  1.502158
C    -1.030924  -3.806033  1.214120
O    -2.322918  -3.859416  1.370574
O    -0.591717  -5.054468  0.688094
H    -1.665826  -1.513559  2.292261
H    -0.197887  -1.552551  3.264721
H    0.911037  -3.009138  1.363672
H    -0.525404  -1.275364  -0.185513
O    1.903880  -0.035151  2.901444
H    2.867209  0.148280  2.912299
H    0.377470  -5.107896  0.617368
Ba    -3.066476  -6.062186  1.043983
