20
Energy: -240152.602355 eV PBE+vdW (tier 2 basis)
N    0.160854  0.283674  -0.560837
C    0.017561  -0.073872  0.908696
C    1.297204  0.510039  1.531788
O    2.233847  0.849567  0.835962
H    -0.399822  1.104018  -0.824902
H    -0.089973  -0.492163  -1.186116
H    -0.863675  0.447603  1.303698
C    -0.133884  -1.599123  1.064853
C    -0.396492  -2.085264  2.499598
C    0.787234  -2.680435  3.238195
O    1.940941  -2.775660  2.692022
O    0.579186  -3.134577  4.419107
H    0.765145  -2.095036  0.668663
H    -0.985990  -1.899775  0.438045
H    -1.161605  -2.875339  2.485220
H    -0.825615  -1.305238  3.145236
O    1.228160  0.592148  2.857945
H    2.048286  1.017086  3.186791
H    1.177549  0.531097  -0.673423
Ba    2.763091  -4.211750  4.609460
