20
Energy: -240151.86704 eV PBE+vdW (tier 2 basis)
N    -0.870773  0.759870  0.293265
C    -0.593400  0.164232  1.582124
C    0.764672  0.584415  2.207261
O    1.698692  -0.219063  2.428136
H    -1.268574  1.695089  0.362244
H    -0.069311  0.793831  -0.336263
H    -1.379500  0.483045  2.283687
C    -0.524284  -1.359405  1.506649
C    -1.634013  -2.241711  0.961229
C    -1.106361  -3.669968  0.984636
O    0.039806  -3.934136  1.402834
O    -1.846985  -4.667106  0.566156
H    -0.322381  -1.705944  2.535797
H    0.351453  -1.566577  0.864130
H    -1.911812  -1.960344  -0.066753
H    -2.555996  -2.186257  1.561349
O    0.863961  1.871456  2.433396
H    1.748434  2.109201  2.786577
H    -2.729486  -4.388177  0.248949
Ba    2.120353  -2.810937  2.363466
