20
Energy: -240152.77811 eV PBE+vdW (tier 2 basis)
N    -0.875698  0.579836  0.784985
C    0.091088  0.184621  1.875264
C    1.218190  -0.550060  1.119671
O    1.071231  -0.879976  -0.041531
H    -0.765061  1.560582  0.506012
H    -0.593790  -0.015886  -0.032897
H    0.487580  1.093742  2.345806
C    -0.558268  -0.732481  2.922486
C    -1.656778  -0.114182  3.807301
C    -3.064358  -0.077233  3.257220
O    -4.040440  -0.169773  4.072235
O    -3.302706  0.055157  1.990769
H    0.255830  -1.052699  3.585976
H    -0.923126  -1.648694  2.433206
H    -1.401315  0.921192  4.094636
H    -1.711588  -0.660647  4.757494
O    2.273690  -0.766629  1.890130
H    2.962082  -1.248574  1.383699
H    -1.871560  0.401155  1.086074
Ba    -5.880229  -0.129834  2.481755
