20
Energy: -240152.468041 eV PBE+vdW (tier 2 basis)
N    1.204800  -1.080527  0.169955
C    0.081206  -0.295636  0.803076
C    0.775748  0.993204  1.316063
O    1.984955  1.084067  1.247974
H    1.439380  -1.917166  0.771164
H    2.023979  -0.422659  0.209602
H    -0.636862  -0.038881  0.011988
C    -0.636861  -1.094901  1.905540
C    0.132566  -1.363041  3.210754
C    1.169247  -2.463649  3.230908
O    1.495550  -2.955751  4.361280
O    1.735700  -2.904466  2.154978
H    -1.009045  -2.034518  1.471220
H    -1.544251  -0.534019  2.170793
H    -0.583694  -1.608095  4.006922
H    0.642411  -0.454830  3.578272
O    0.030009  1.949748  1.855041
H    -0.930264  1.797898  1.772563
H    1.004995  -1.364473  -0.793862
Ba    3.136429  -4.591305  3.629766
