20
Energy: -240151.888299 eV PBE+vdW (tier 2 basis)
N    0.957772  -0.572783  -0.122639
C    0.191440  -0.191577  1.040714
C    1.067648  -0.316182  2.284041
O    2.084360  -1.064133  2.308938
H    1.091848  -1.580008  -0.207499
H    0.541493  -0.225343  -0.984804
H    -0.021303  0.886298  0.945165
C    -1.169826  -0.945175  1.201488
C    -2.049393  -0.683779  2.460345
C    -2.306661  0.756287  2.745891
O    -1.417805  1.555878  3.190017
O    -3.501725  1.202699  2.520613
H    -0.979321  -2.027161  1.175918
H    -1.754970  -0.709207  0.302785
H    -1.571887  -1.108741  3.356168
H    -3.013588  -1.188173  2.329083
O    0.786569  0.391322  3.350805
H    -0.453395  1.082506  3.291050
H    -3.587236  2.159744  2.733967
Ba    3.191680  -0.200777  4.315704
