20
Energy: -240152.254254 eV PBE+vdW (tier 2 basis)
N    -0.186621  0.031915  -0.114446
C    -0.093847  -0.019980  1.397996
C    1.422672  0.169309  1.676602
O    1.741044  0.348328  2.924385
H    -0.687662  -0.767605  -0.520893
H    -0.617577  0.895090  -0.465831
H    -0.641101  0.839605  1.805808
C    -0.698459  -1.340300  1.916925
C    -0.438855  -1.630286  3.403203
C    0.864047  -2.351138  3.630357
O    1.401463  -3.131537  2.902400
O    1.446117  -2.057383  4.911859
H    -0.300690  -2.183111  1.330169
H    -1.783441  -1.305546  1.750152
H    -1.210884  -2.330188  3.766722
H    -0.522554  -0.741352  4.038465
O    2.196448  0.137064  0.725243
H    0.837824  0.011388  -0.400044
H    1.940343  -2.871888  5.145949
Ba    3.077608  0.181612  4.819276
