20
Energy: -240152.268355 eV PBE+vdW (tier 2 basis)
N    0.482484  0.381472  0.411130
C    -0.260391  0.123875  1.638561
C    0.785160  -0.080340  2.727314
O    1.360560  -1.168152  2.980777
H    1.135353  -0.350694  0.137545
H    0.934280  1.293674  0.376124
H    -0.808616  1.043979  1.884867
C    -1.258080  -1.022365  1.418982
C    -2.374979  -1.178347  2.460253
C    -2.065469  -1.996769  3.685107
O    -1.091647  -2.770154  3.763017
O    -2.865536  -1.945120  4.728331
H    -0.731203  -1.978915  1.273902
H    -1.726794  -0.800236  0.451586
H    -3.232061  -1.690990  1.986421
H    -2.772671  -0.198984  2.771552
O    1.136170  1.043589  3.321218
H    1.925221  0.921501  3.890344
H    -3.622291  -1.337986  4.601710
Ba    1.222707  -3.527782  3.683716
