20
Energy: -240152.685774 eV PBE+vdW (tier 2 basis)
N    1.847711  1.770603  1.984034
C    1.320890  0.701567  1.039190
C    -0.205859  0.904201  1.107619
O    -0.694577  1.694550  1.893713
H    2.469989  1.400819  2.711137
H    0.971420  2.170037  2.421832
H    1.667063  0.953312  0.028538
C    1.787009  -0.718998  1.392145
C    1.260069  -1.278471  2.718443
C    1.612958  -2.740178  2.958324
O    1.363511  -3.239038  4.110590
O    2.121555  -3.449944  2.024612
H    2.886510  -0.743664  1.363221
H    1.461114  -1.363305  0.565039
H    0.159751  -1.225592  2.769955
H    1.613300  -0.725703  3.602928
O    -0.851521  0.133526  0.244797
H    -1.813771  0.318688  0.295348
H    2.343505  2.522659  1.490528
Ba    2.125376  -5.499068  3.477009
