20
Energy: -240153.016612 eV PBE+vdW (tier 2 basis)
N    0.201767  0.818492  0.248759
C    -0.180829  0.391175  1.624331
C    1.052041  -0.157910  2.331738
O    2.056342  -0.562973  1.727837
H    0.478790  1.804845  0.289628
H    -0.641838  0.820838  -0.331594
H    -0.530065  1.254310  2.212058
C    -1.339415  -0.639636  1.668713
C    -1.066284  -2.119430  1.303511
C    -0.842191  -2.404159  -0.156979
O    0.204831  -2.118624  -0.772365
O    -1.860100  -2.992787  -0.742796
H    -2.168642  -0.242004  1.064561
H    -1.710197  -0.644934  2.701948
H    -0.191494  -2.503176  1.850138
H    -1.931574  -2.705900  1.633649
O    0.924333  -0.188637  3.638027
H    1.723731  -0.564968  4.066620
H    -1.669418  -3.184256  -1.686685
Ba    2.308210  -0.755265  -0.812097
