20
Energy: -240152.66273 eV PBE+vdW (tier 2 basis)
N    -1.340009  1.210675  0.617418
C    -0.857462  0.339320  1.694962
C    0.671732  0.570003  1.756932
O    1.406899  0.012033  2.604916
H    -1.966323  1.951832  0.927992
H    -1.777937  0.712435  -0.156399
H    -1.238379  0.703582  2.662630
C    -1.200930  -1.167174  1.531354
C    -2.227359  -1.716254  2.527911
C    -1.698105  -1.955122  3.923474
O    -0.490622  -1.904188  4.212755
O    -2.536447  -2.255809  4.893644
H    -0.287957  -1.773741  1.588942
H    -1.590195  -1.326279  0.517196
H    -2.600664  -2.693055  2.172245
H    -3.120592  -1.073343  2.589066
O    1.119604  1.395136  0.881882
H    0.230067  1.658446  0.386502
H    -3.469103  -2.292848  4.600652
Ba    1.933578  -1.421449  4.477439
