20
Energy: -240153.171391 eV PBE+vdW (tier 2 basis)
N    0.706133  0.195176  0.050928
C    0.260514  0.283866  1.500251
C    1.208667  -0.627225  2.291917
O    1.396503  -0.384796  3.512596
H    1.458600  0.864075  -0.163751
H    -0.059309  0.354977  -0.618465
H    0.348624  1.326054  1.828209
C    -1.192851  -0.226751  1.606736
C    -1.773571  -0.285738  3.039926
C    -1.775705  -1.651929  3.689340
O    -0.806506  -2.428285  3.745344
O    -2.943695  -1.943083  4.226653
H    -1.258271  -1.216240  1.129155
H    -1.830209  0.452870  1.023507
H    -2.806349  0.077499  3.033328
H    -1.216447  0.379443  3.720189
O    1.642661  -1.658474  1.678061
H    1.090176  -0.766842  -0.066888
H    -2.920246  -2.818488  4.668661
Ba    1.715283  -2.878109  3.994304
