20
Energy: -240151.941252 eV PBE+vdW (tier 2 basis)
N    0.272654  -0.227490  0.126199
C    0.000864  -0.223701  1.571334
C    1.283000  -0.622721  2.271579
O    1.826223  -1.758872  2.170193
H    -0.571171  0.067431  -0.370225
H    0.975083  0.479039  -0.106078
H    -0.263091  0.765295  1.979179
C    -1.141636  -1.222858  1.946522
C    -1.533688  -2.281057  0.907510
C    -0.573660  -3.335536  0.435529
O    -0.984213  -4.190287  -0.409232
O    0.655740  -3.455428  0.859290
H    -2.042777  -0.621793  2.122172
H    -0.925510  -1.696576  2.914571
H    -1.933047  -1.826036  -0.011604
H    -2.395952  -2.842836  1.305233
O    1.823759  0.290218  3.019707
H    2.642759  -0.031579  3.459994
H    1.246830  -2.485825  1.559033
Ba    0.978337  -5.602099  -0.683348
