30
Energy: -19629.2533578 eV PBE+vdW (tier 2 basis)
C    0.242621  -0.099454  0.042319
C    -0.634204  0.289267  1.206855
O    -1.369866  1.270034  1.201367
H    0.875313  -0.973722  0.235348
H    0.877530  0.754995  -0.221878
H    -0.396292  -0.305410  -0.825712
N    -0.555610  -0.529969  2.320344
C    -1.405166  -0.288601  3.468554
C    -0.587962  -0.302327  4.774590
O    -0.850101  -1.090426  5.712389
H    0.026228  -1.360441  2.295011
H    -1.804423  0.727798  3.303867
C    -2.594754  -1.285002  3.465030
C    -3.669402  -1.038338  4.468794
N    -3.421230  -1.114515  5.827153
C    -5.006927  -0.759049  4.339382
C    -4.538020  -0.889653  6.513811
N    -5.518046  -0.676053  5.620454
H    -2.209279  -2.307155  3.600261
H    -3.041440  -1.235633  2.464821
H    -2.409166  -1.233930  6.121602
H    -5.624435  -0.624254  3.461304
H    -4.644830  -0.875753  7.590913
H    -6.485993  -0.484723  5.859801
N    0.432073  0.565084  4.886820
C    0.880670  1.593850  3.953892
H    0.945251  0.468027  5.760117
H    0.040518  2.011412  3.388735
H    1.623804  1.203022  3.245777
H    1.338137  2.403924  4.531280
