30
Energy: -19629.2834318 eV PBE+vdW (tier 2 basis)
C    1.049388  0.648915  0.251253
C    0.571736  0.362108  1.647293
O    0.679228  -0.780403  2.140934
H    2.119299  0.415406  0.184504
H    0.885208  1.684843  -0.065007
H    0.529682  -0.025382  -0.441463
N    0.012108  1.389268  2.330756
C    -0.578253  1.264799  3.662331
C    -1.688777  2.343512  3.817162
O    -1.579821  3.245197  4.640802
H    -0.007942  2.303141  1.888750
H    -1.053191  0.272452  3.704209
C    0.449719  1.396064  4.814331
C    0.838323  0.101559  5.441763
N    1.080788  -1.043506  4.701160
C    1.056605  -0.236269  6.754475
C    1.433635  -2.041067  5.509017
N    1.428513  -1.566230  6.764812
H    0.023153  2.066918  5.571792
H    1.346305  1.905490  4.431520
H    0.936553  -1.057453  3.632459
H    0.981685  0.350663  7.660239
H    1.675292  -3.054266  5.214112
H    1.658269  -2.110434  7.590360
N    -2.761880  2.230428  2.990206
C    -3.069504  1.199242  2.008367
H    -3.437318  2.980531  3.112046
H    -2.644492  1.422008  1.018802
H    -4.157435  1.125825  1.906751
H    -2.703876  0.217641  2.332264
