30
Energy: -19629.2724044 eV PBE+vdW (tier 2 basis)
C    1.311308  -1.000921  -0.086665
C    0.522993  -0.415036  1.059701
O    0.374322  0.787494  1.233135
H    2.327007  -0.587580  -0.062150
H    0.855274  -0.676444  -1.030251
H    1.369069  -2.095769  -0.073187
N    -0.040942  -1.333698  1.933065
C    -0.818599  -0.874977  3.069575
C    -0.367392  -1.637930  4.323693
O    -0.910007  -2.706210  4.704390
H    0.099793  -2.325828  1.780780
H    -0.542102  0.184844  3.173271
C    -2.349884  -0.865947  2.820660
C    -2.966633  -2.148601  2.373407
N    -2.732249  -3.332062  3.047846
C    -3.841902  -2.444526  1.358378
C    -3.424346  -4.319071  2.486513
N    -4.111837  -3.796086  1.456345
H    -2.543241  -0.101247  2.057932
H    -2.850558  -0.524790  3.740957
H    -1.997396  -3.290619  3.853974
H    -4.292770  -1.819291  0.599199
H    -3.436880  -5.356988  2.794093
H    -4.734567  -4.320642  0.849964
N    0.673973  -1.139565  5.002680
C    1.449106  0.065792  4.712228
H    0.956976  -1.706625  5.798604
H    0.828320  0.968992  4.766803
H    1.921461  0.015986  3.723838
H    2.235705  0.149346  5.467223
