30
Energy: -19629.081895 eV PBE+vdW (tier 2 basis)
C    0.288413  -0.071529  0.668588
C    -0.622157  -1.015951  1.424444
O    -0.512334  -2.229884  1.382390
H    1.084723  -0.667118  0.215200
H    0.739497  0.688210  1.321872
H    -0.248748  0.453825  -0.134241
N    -1.609563  -0.449485  2.234670
C    -2.122943  0.903948  2.174218
C    -2.545325  1.388066  3.588449
O    -3.651614  1.920728  3.811674
H    -2.207754  -1.162005  2.650039
H    -1.291353  1.559404  1.874411
C    -3.226081  1.123050  1.100983
C    -4.480615  0.339236  1.281422
N    -5.313993  0.559935  2.364375
C    -5.082925  -0.637124  0.528572
C    -6.378615  -0.235268  2.296666
N    -6.256217  -0.969139  1.178809
H    -2.795441  0.865813  0.125650
H    -3.474766  2.194253  1.068405
H    -4.962252  1.214028  3.117538
H    -4.784983  -1.105811  -0.399974
H    -7.193985  -0.288281  3.006855
H    -6.930821  -1.660358  0.865146
N    -1.613179  1.212665  4.534493
C    -1.770659  1.617551  5.924768
H    -0.768144  0.717081  4.264235
H    -0.956646  2.292604  6.215468
H    -1.760885  0.741013  6.585132
H    -2.725761  2.139552  6.027156
