30
Energy: -19628.6131127 eV PBE+vdW (tier 2 basis)
C    0.503980  -0.289058  0.491048
C    0.400740  0.011523  1.970015
O    1.387604  0.063885  2.701790
H    1.128640  0.481293  0.021279
H    -0.459666  -0.333878  -0.029542
H    1.024429  -1.246078  0.363818
N    -0.877465  0.235955  2.430297
C    -1.318110  0.488870  3.799048
C    -1.719211  1.958526  4.125744
O    -2.762441  2.126516  4.772065
H    -1.624064  0.187576  1.746371
H    -2.283274  -0.028416  3.895964
C    -0.369786  -0.119688  4.858639
C    -0.979018  -0.290375  6.213143
N    -0.318623  -1.020239  7.196838
C    -2.143176  0.139997  6.801399
C    -1.030546  -1.043456  8.330208
N    -2.142188  -0.340205  8.096820
H    0.554981  0.466989  4.940683
H    -0.050231  -1.108061  4.496618
H    0.581443  -1.477669  7.078162
H    -2.920979  0.774395  6.385973
H    -0.758701  -1.539113  9.253290
H    -2.875843  -0.180235  8.781024
N    -0.960853  3.006080  3.734339
C    0.293442  3.064781  2.993382
H    -1.387776  3.894309  3.986928
H    0.810008  3.990032  3.269994
H    0.125424  3.075136  1.906617
H    0.949603  2.223191  3.237279
