30
Energy: -19628.324564 eV PBE+vdW (tier 2 basis)
C    0.168675  0.759713  -0.064304
C    0.038390  0.668195  1.426735
O    0.913760  1.122326  2.190012
H    1.140105  0.322108  -0.331823
H    0.210237  1.812602  -0.374278
H    -0.615362  0.227778  -0.609411
N    -1.068701  0.064577  1.975787
C    -2.452952  0.415628  1.633837
C    -2.917763  -0.352595  0.353265
O    -2.859543  -1.572179  0.425859
H    -0.930476  -0.149620  2.961027
H    -3.066360  -0.073948  2.402553
C    -2.649786  1.952720  1.790210
C    -2.244239  2.472593  3.135864
N    -0.943705  2.436872  3.639438
C    -3.002194  3.090477  4.099472
C    -0.911911  3.002555  4.845316
N    -2.154950  3.407300  5.141430
H    -2.076906  2.490933  1.022203
H    -3.704820  2.213307  1.638916
H    -0.099265  1.978244  3.168034
H    -4.056175  3.334806  4.120000
H    -0.038811  3.110779  5.477019
H    -2.421243  3.877420  6.001317
N    -3.407097  0.268799  -0.758283
C    -3.457250  1.663763  -1.177062
H    -3.713076  -0.418479  -1.442801
H    -4.187850  2.253847  -0.607270
H    -3.772434  1.683517  -2.224758
H    -2.474849  2.151927  -1.127275
