30
Energy: -19629.3600383 eV PBE+vdW (tier 2 basis)
C    0.583506  -0.206212  -0.134622
C    -0.073690  -0.300014  1.222337
O    -0.090872  -1.322301  1.899073
H    1.586510  -0.643482  -0.075285
H    0.006730  -0.814446  -0.843976
H    0.652404  0.816307  -0.524645
N    -0.681314  0.852978  1.678813
C    -1.438916  0.835014  2.921278
C    -2.342013  2.075087  2.948778
O    -1.868295  3.232873  3.014634
H    -0.698584  1.686275  1.101970
H    -2.056229  -0.076599  2.923819
C    -0.536380  0.722748  4.187866
C    0.652129  1.621854  4.198288
N    0.567742  2.958142  3.851349
C    1.963870  1.390205  4.526670
C    1.762900  3.533647  3.957124
N    2.626117  2.592901  4.374360
H    -0.184947  -0.314035  4.241975
H    -1.153883  0.906316  5.081145
H    -0.370514  3.328643  3.484074
H    2.467426  0.488424  4.848700
H    2.004198  4.567371  3.745245
H    3.613420  2.751031  4.549649
N    -3.659084  1.841111  2.888309
C    -4.674302  2.887628  2.889610
H    -3.964111  0.877377  2.801117
H    -4.190328  3.839895  3.121799
H    -5.155948  2.958542  1.905898
H    -5.435279  2.667031  3.647048
