30
Energy: -19628.8928144 eV PBE+vdW (tier 2 basis)
C    0.204513  -0.234839  0.057487
C    -0.689898  -0.584715  1.221538
O    -1.591572  -1.423924  1.138717
H    -0.395450  0.293427  -0.695779
H    0.565906  -1.158252  -0.408800
H    1.058135  0.396161  0.330596
N    -0.440549  0.090930  2.390151
C    -1.333708  0.040094  3.541555
C    -1.621191  1.501589  3.964152
O    -0.823687  2.086651  4.696486
H    0.277999  0.809248  2.396928
H    -2.240226  -0.478508  3.203773
C    -0.730446  -0.686809  4.756007
C    -0.463437  -2.137192  4.545174
N    0.238116  -2.896731  5.475945
C    -0.816521  -3.015595  3.550436
C    0.317726  -4.174240  5.082850
N    -0.319725  -4.253188  3.911216
H    -1.424857  -0.572735  5.604758
H    0.188749  -0.160813  5.055860
H    0.638524  -2.538891  6.338939
H    -1.343049  -2.824633  2.615595
H    0.803806  -4.983804  5.612042
H    -0.419691  -5.105494  3.367550
N    -2.728865  2.087525  3.450303
C    -3.737543  1.502519  2.573263
H    -2.850108  3.054036  3.740603
H    -3.284327  0.976540  1.724183
H    -4.351295  2.313758  2.169814
H    -4.403686  0.810691  3.109042
