30
Energy: -19629.2785895 eV PBE+vdW (tier 2 basis)
C    0.405610  0.190272  0.280152
C    0.012877  0.026538  1.721954
O    0.837847  -0.374959  2.569702
H    0.773454  -0.773778  -0.093910
H    1.240448  0.899249  0.215969
H    -0.412416  0.535673  -0.361321
N    -1.269571  0.318786  2.047106
C    -1.840436  0.152491  3.384399
C    -3.374567  -0.042006  3.224824
O    -4.155708  0.851153  3.533931
H    -1.874750  0.689305  1.320631
H    -1.404279  -0.767524  3.801890
C    -1.555980  1.345905  4.334073
C    -0.496420  1.083345  5.348196
N    0.688127  0.438053  5.034942
C    -0.420359  1.402238  6.681380
C    1.462769  0.361185  6.114625
N    0.804997  0.947591  7.127748
H    -2.494248  1.618135  4.833891
H    -1.278271  2.220552  3.727741
H    0.859796  0.044443  4.044425
H    -1.121516  1.908466  7.331491
H    2.442766  -0.095003  6.173472
H    1.159542  1.034497  8.074963
N    -3.777781  -1.227602  2.696950
C    -2.976965  -2.410355  2.402951
H    -4.786888  -1.301159  2.601646
H    -2.213500  -2.212658  1.639216
H    -3.644100  -3.184826  2.013378
H    -2.488322  -2.814025  3.301499
