30
Energy: -19628.776815 eV PBE+vdW (tier 2 basis)
C    0.378307  -0.060510  0.827661
C    -0.078792  0.435368  2.179553
O    0.559001  1.273808  2.814135
H    1.194026  0.582552  0.486622
H    -0.420108  -0.085941  0.075468
H    0.758172  -1.086954  0.920763
N    -1.227115  -0.112226  2.750105
C    -2.490603  -0.425330  2.079787
C    -2.372031  -1.439075  0.913203
O    -2.880795  -1.200898  -0.182459
H    -1.341793  0.245847  3.698661
H    -3.115884  -0.918730  2.839990
C    -3.285966  0.837869  1.647841
C    -2.593166  1.750439  0.696812
N    -1.609040  2.660864  1.069170
C    -2.738300  1.904643  -0.658477
C    -1.160102  3.329559  0.002439
N    -1.849686  2.881938  -1.054259
H    -3.553526  1.398623  2.555570
H    -4.221951  0.509935  1.181225
H    -1.184487  2.731756  1.995787
H    -3.378865  1.376540  -1.351739
H    -0.385263  4.085380  -0.004047
H    -1.730726  3.222793  -2.003734
N    -1.723218  -2.580586  1.231472
C    -1.522591  -3.672727  0.290903
H    -1.314137  -2.651580  2.157617
H    -0.467264  -3.754042  -0.004289
H    -2.127073  -3.471634  -0.598344
H    -1.841167  -4.622101  0.737503
