30
Energy: -19629.2640859 eV PBE+vdW (tier 2 basis)
C    0.155753  -0.090630  0.165917
C    0.103352  0.220257  1.638378
O    1.124390  0.578814  2.252035
H    0.882525  -0.894954  -0.002775
H    0.530592  0.795111  -0.362997
H    -0.809737  -0.381932  -0.262240
N    -1.108932  0.098456  2.239625
C    -1.461430  0.474418  3.613621
C    -0.986134  1.895005  4.032872
O    -0.383924  2.055666  5.091388
H    -1.872884  -0.208986  1.648560
H    -2.560962  0.519363  3.600816
C    -1.119277  -0.593316  4.686570
C    0.228803  -0.575744  5.337183
N    1.409280  -0.265272  4.695283
C    0.565972  -0.901477  6.627157
C    2.429253  -0.359172  5.545011
N    1.934981  -0.755085  6.727364
H    -1.291463  -1.578398  4.226231
H    -1.854989  -0.500975  5.495529
H    1.419887  0.117631  3.698164
H    -0.044942  -1.198279  7.468741
H    3.468173  -0.148553  5.327553
H    2.488290  -0.912563  7.562986
N    -1.313143  2.933981  3.222699
C    -2.121761  2.960636  2.013266
H    -0.964860  3.822868  3.571197
H    -1.542272  2.712915  1.112235
H    -2.526393  3.970717  1.890771
H    -2.978113  2.277852  2.085946
