30
Energy: -19629.0548085 eV PBE+vdW (tier 2 basis)
C    -1.090675  1.908365  2.100525
C    -1.404079  0.747620  3.015342
O    -1.552270  0.869849  4.231838
H    -0.014982  2.123426  2.170750
H    -1.329408  1.711184  1.048613
H    -1.623159  2.801155  2.444554
N    -1.528282  -0.476575  2.396060
C    -1.468478  -1.718735  3.139592
C    -0.718368  -2.731578  2.241397
O    -0.759415  -2.602547  1.019167
H    -1.276803  -0.593591  1.411647
H    -0.937771  -1.532360  4.085576
C    -2.883299  -2.293018  3.473088
C    -3.691751  -1.335162  4.268456
N    -4.352151  -0.258149  3.697355
C    -3.859129  -1.188941  5.621943
C    -4.868201  0.534033  4.642195
N    -4.581524  -0.031650  5.818426
H    -3.393785  -2.541667  2.531277
H    -2.775717  -3.227551  4.038473
H    -4.357401  -0.052590  2.702244
H    -3.505584  -1.794265  6.445328
H    -5.423446  1.449666  4.486932
H    -4.852797  0.350524  6.719310
N    -0.091306  -3.737501  2.892104
C    0.637216  -4.794574  2.201096
H    -0.027865  -3.692944  3.902990
H    1.721048  -4.674304  2.328762
H    0.397300  -4.730232  1.135887
H    0.336051  -5.776791  2.584324
