30
Energy: -19628.6679972 eV PBE+vdW (tier 2 basis)
C    -0.307645  -1.179608  0.285244
C    -0.439836  -0.756780  1.724112
O    0.549411  -0.553693  2.444187
H    -0.172922  -2.270484  0.230372
H    0.603161  -0.723999  -0.117017
H    -1.165669  -0.903514  -0.335790
N    -1.696738  -0.625981  2.266618
C    -2.820178  -1.534675  2.039279
C    -4.128558  -0.716546  2.213237
O    -4.601169  -0.573398  3.338440
H    -1.682244  -0.207347  3.198650
H    -2.728311  -1.952625  1.030326
C    -2.837819  -2.658964  3.105158
C    -1.593459  -3.458482  3.304491
N    -0.324351  -2.952638  3.590631
C    -1.464086  -4.824646  3.377083
C    0.531615  -3.953207  3.809554
N    -0.148880  -5.098980  3.692425
H    -3.650259  -3.359905  2.870412
H    -3.131973  -2.179270  4.053833
H    -0.004353  -1.963726  3.500787
H    -2.201083  -5.606850  3.251742
H    1.587633  -3.851797  4.026890
H    0.249816  -6.023750  3.823267
N    -4.672996  -0.158735  1.104810
C    -4.140746  -0.135541  -0.250571
H    -5.482735  0.422653  1.304907
H    -3.214382  0.453112  -0.322056
H    -4.885650  0.329484  -0.903226
H    -3.960912  -1.148134  -0.636279
