30
Energy: -19629.2249293 eV PBE+vdW (tier 2 basis)
C    1.175023  -0.572512  0.525334
C    0.474654  -0.727075  1.850527
O    0.912540  -1.491596  2.737409
H    2.253212  -0.466128  0.690335
H    0.803073  0.266014  -0.073634
H    1.028659  -1.499433  -0.046746
N    -0.640631  0.019113  2.024046
C    -1.627053  -0.082086  3.086855
C    -2.590958  1.109240  2.853418
O    -2.207384  2.102454  2.236381
H    -0.854670  0.768497  1.363778
H    -2.180454  -1.029316  2.975117
C    -1.083234  -0.079100  4.553937
C    0.074594  0.817058  4.819019
N    1.358617  0.422407  4.487652
C    0.193010  2.053325  5.400832
C    2.233424  1.363472  4.833307
N    1.538688  2.364425  5.397044
H    -0.786428  -1.103671  4.809544
H    -1.908232  0.196409  5.222975
H    1.498437  -0.457405  3.921434
H    -0.552542  2.721100  5.810932
H    3.306182  1.333823  4.691239
H    1.950383  3.215063  5.768253
N    -3.822373  0.968127  3.394972
C    -4.858127  1.988213  3.286572
H    -4.078381  0.069471  3.789816
H    -4.404003  2.888572  2.863013
H    -5.274318  2.218272  4.274887
H    -5.668159  1.654538  2.625088
