30
Energy: -19629.0445864 eV PBE+vdW (tier 2 basis)
C    -0.039416  0.461186  -0.865803
C    0.255094  -0.098536  0.510528
O    1.379440  -0.376899  0.893256
H    -0.581565  1.415877  -0.818542
H    -0.637769  -0.234917  -1.470776
H    0.915730  0.623434  -1.371396
N    -0.821481  -0.276656  1.376403
C    -2.236973  -0.230418  1.059975
C    -2.977512  0.331884  2.290420
O    -3.501849  -0.406458  3.156362
H    -0.541989  -0.680052  2.268102
H    -2.371482  0.483866  0.237477
C    -2.818013  -1.580703  0.544728
C    -2.497103  -2.780595  1.370785
N    -2.807842  -2.830097  2.716672
C    -1.908364  -3.981241  1.064173
C    -2.432200  -3.998616  3.229006
N    -1.886846  -4.716834  2.233106
H    -2.422107  -1.749267  -0.464429
H    -3.910245  -1.483267  0.442226
H    -3.199697  -1.926366  3.151065
H    -1.514982  -4.366971  0.133106
H    -2.539225  -4.318868  4.257603
H    -1.513623  -5.655739  2.334318
N    -3.014262  1.665390  2.429641
C    -2.408980  2.678112  1.570561
H    -3.468590  1.977011  3.284954
H    -2.636631  3.661073  1.992102
H    -2.824814  2.647782  0.554417
H    -1.317846  2.565874  1.525988
