30
Energy: -19629.0229917 eV PBE+vdW (tier 2 basis)
C    -0.207638  0.636264  -0.365663
C    -0.182677  -0.458133  0.661273
O    0.749150  -1.279854  0.723181
H    0.635882  1.308151  -0.151335
H    -1.127235  1.229944  -0.354397
H    -0.032697  0.220244  -1.365071
N    -1.212096  -0.539282  1.571949
C    -2.619687  -0.593977  1.196884
C    -3.385310  -0.939018  2.489934
O    -2.903054  -1.765414  3.266456
H    -1.033593  -1.192291  2.342395
H    -2.956014  0.360856  0.769753
C    -2.856839  -1.721180  0.133222
C    -2.348564  -3.066231  0.542844
N    -1.012875  -3.356180  0.808752
C    -3.035893  -4.234493  0.750947
C    -0.892586  -4.631454  1.173877
N    -2.113385  -5.182821  1.139395
H    -2.371429  -1.410830  -0.804622
H    -3.929647  -1.807493  -0.084065
H    -0.207790  -2.662735  0.793449
H    -4.090203  -4.458701  0.660750
H    0.026566  -5.132847  1.449621
H    -2.317213  -6.150454  1.368618
N    -4.584052  -0.336681  2.644973
C    -5.448952  -0.571667  3.794514
H    -4.848538  0.387044  1.985766
H    -6.461416  -0.833393  3.464123
H    -5.498666  0.319298  4.433650
H    -5.027188  -1.398985  4.372422
