30
Energy: -19628.0192987 eV PBE+vdW (tier 2 basis)
C    -0.788351  0.914413  0.867430
C    -0.740602  -0.004025  2.067073
O    0.078273  0.127755  2.972181
H    -1.721619  1.494719  0.827988
H    0.045184  1.617075  0.944120
H    -0.705900  0.346516  -0.068277
N    -1.646854  -1.048619  2.129439
C    -2.944276  -1.181576  1.492623
C    -2.791133  -1.411914  -0.050101
O    -2.087813  -2.361460  -0.366561
H    -1.418473  -1.715766  2.859514
H    -3.318156  -2.166788  1.806627
C    -3.951865  -0.123909  2.049614
C    -4.015833  -0.160571  3.540405
N    -5.127399  -0.597420  4.250942
C    -3.074332  0.148848  4.496426
C    -4.895819  -0.558937  5.570068
N    -3.648292  -0.105511  5.725187
H    -4.953737  -0.299719  1.634822
H    -3.656777  0.887165  1.744818
H    -6.005960  -0.897585  3.837476
H    -2.054540  0.507326  4.398937
H    -5.586010  -0.837591  6.356053
H    -3.192116  0.026889  6.624006
N    -3.429744  -0.664179  -0.996404
C    -4.182127  0.581680  -0.945029
H    -3.231765  -1.029741  -1.924646
H    -5.167657  0.466770  -0.472749
H    -3.629284  1.387847  -0.444623
H    -4.356399  0.905808  -1.975593
