30
Energy: -19629.0098394 eV PBE+vdW (tier 2 basis)
C    -0.647335  0.384850  -0.782038
C    -0.644628  -0.327976  0.547516
O    -0.416940  -1.538727  0.650312
H    0.235994  0.082854  -1.355655
H    -1.529371  0.056996  -1.348860
H    -0.673821  1.476865  -0.693700
N    -0.905171  0.453678  1.642433
C    -1.232190  -0.098672  2.944164
C    -2.510611  0.626811  3.426647
O    -2.602057  1.842860  3.269399
H    -1.214482  1.416737  1.513915
H    -1.394083  -1.178715  2.813640
C    -0.134136  0.153474  4.005088
C    1.158780  -0.546522  3.752404
N    2.287609  -0.316137  4.532856
C    1.534789  -1.496594  2.835911
C    3.309244  -1.078772  4.122878
N    2.858477  -1.797316  3.090524
H    -0.519911  -0.157497  4.990391
H    0.036049  1.240079  4.067436
H    2.342203  0.340495  5.306540
H    0.958160  -1.919437  2.010168
H    4.304921  -1.106273  4.546724
H    3.416642  -2.466147  2.567763
N    -3.437517  -0.150944  4.031792
C    -4.691973  0.375899  4.554348
H    -3.301803  -1.155556  4.025648
H    -4.845161  0.042853  5.587916
H    -5.541540  0.048360  3.940905
H    -4.636153  1.468113  4.528098
