30
Energy: -19629.2765023 eV PBE+vdW (tier 2 basis)
C    -1.061600  -0.474772  0.567553
C    -0.983393  -0.260843  2.059097
O    -0.873055  -1.178143  2.864194
H    -0.167289  -1.021418  0.244260
H    -1.144938  0.452668  -0.011237
H    -1.926337  -1.113367  0.348620
N    -1.038574  1.058933  2.478928
C    -0.990023  1.390719  3.891023
C    -2.322112  2.033337  4.318677
O    -2.547787  3.265465  4.176680
H    -1.213659  1.786526  1.795138
H    -0.885938  0.417513  4.389019
C    0.268997  2.203628  4.289012
C    0.532651  3.455923  3.518671
N    -0.464181  4.387961  3.299798
C    1.675754  3.962363  2.951971
C    0.028574  5.426398  2.631770
N    1.334137  5.188119  2.414003
H    1.133932  1.538590  4.173821
H    0.201608  2.446990  5.361558
H    -1.474656  4.103028  3.641449
H    2.681602  3.567653  2.896176
H    -0.514497  6.307500  2.314123
H    1.965550  5.818408  1.929487
N    -3.280672  1.245047  4.815391
C    -3.269549  -0.191732  5.089359
H    -4.131499  1.752911  5.052489
H    -3.030457  -0.387628  6.143485
H    -2.553590  -0.715892  4.448603
H    -4.267677  -0.590856  4.878870
