30
Energy: -19628.5595133 eV PBE+vdW (tier 2 basis)
C    0.266623  0.000104  0.183176
C    -0.014601  0.512470  1.583325
O    0.792076  1.168733  2.221174
H    0.145689  -1.089853  0.104761
H    1.299876  0.257354  -0.062774
H    -0.393947  0.468070  -0.560841
N    -1.253506  0.217351  2.135705
C    -2.338971  -0.545748  1.560539
C    -3.692790  0.124223  1.906617
O    -4.499418  -0.443816  2.649868
H    -1.365812  0.568321  3.084933
H    -2.215649  -0.548592  0.467688
C    -2.326497  -2.011649  2.081946
C    -3.263567  -2.946298  1.396966
N    -2.834396  -3.944115  0.527962
C    -4.632412  -3.069727  1.438081
C    -3.872360  -4.651852  0.062845
N    -4.969996  -4.122367  0.612505
H    -2.574670  -1.989960  3.151002
H    -1.298651  -2.388470  1.989432
H    -1.864421  -4.137645  0.294748
H    -5.354243  -2.478622  1.986711
H    -3.829964  -5.489519  -0.621336
H    -5.914396  -4.457118  0.443459
N    -3.933905  1.346099  1.376547
C    -3.075576  2.159395  0.523675
H    -4.804967  1.759046  1.699241
H    -3.688908  2.941981  0.066381
H    -2.645310  1.563015  -0.290838
H    -2.259333  2.634002  1.084531
