30
Energy: -19628.9621483 eV PBE+vdW (tier 2 basis)
C    -0.212300  0.229735  -0.261511
C    -0.330197  0.570290  1.202957
O    0.104301  1.630504  1.671298
H    0.846359  0.269896  -0.546408
H    -0.731635  1.001177  -0.843962
H    -0.617704  -0.753459  -0.525660
N    -0.951247  -0.360341  1.991089
C    -1.142262  -0.263598  3.438535
C    -2.204377  0.773022  3.916047
O    -3.043786  0.411170  4.750066
H    -1.355042  -1.170988  1.536902
H    -1.575231  -1.224903  3.741434
C    0.220077  -0.094075  4.156363
C    0.165442  -0.219680  5.642206
N    1.321666  -0.177463  6.415275
C    -0.863313  -0.390107  6.536653
C    1.029218  -0.314126  7.714727
N    -0.297841  -0.443770  7.795749
H    0.655566  0.877960  3.879019
H    0.902916  -0.863601  3.761604
H    2.263362  -0.057020  6.052538
H    -1.933339  -0.427961  6.348281
H    1.732564  -0.319745  8.537475
H    -0.812735  -0.558398  8.663987
N    -2.102952  2.012687  3.404298
C    -3.031031  3.082558  3.735263
H    -1.330097  2.187129  2.751793
H    -3.498950  3.477267  2.824560
H    -2.512172  3.904018  4.247254
H    -3.806539  2.680758  4.393993
