30
Energy: -19628.9579064 eV PBE+vdW (tier 2 basis)
C    -0.198512  -0.788804  -0.171507
C    -0.330988  -0.799927  1.323540
O    0.326488  -1.567067  2.042058
H    0.867127  -0.868326  -0.417540
H    -0.619173  0.106812  -0.639157
H    -0.683594  -1.680285  -0.594439
N    -1.226453  0.083680  1.914062
C    -2.639696  0.091320  1.508731
C    -3.435106  1.158796  2.304036
O    -4.551504  0.896995  2.745468
H    -1.114067  0.072805  2.929314
H    -2.701395  0.360156  0.443089
C    -3.293709  -1.306162  1.674345
C    -3.104998  -1.928027  3.018074
N    -1.878028  -2.370147  3.510726
C    -4.023537  -2.204083  3.997810
C    -2.038483  -2.892912  4.727970
N    -3.340128  -2.802828  5.035509
H    -2.889334  -1.978577  0.903274
H    -4.369470  -1.206133  1.492925
H    -0.946588  -2.226411  3.038418
H    -5.086732  -2.007420  4.033795
H    -1.260299  -3.309991  5.354573
H    -3.751864  -3.131197  5.903739
N    -2.805210  2.349129  2.436913
C    -3.412528  3.500027  3.090427
H    -1.886915  2.452427  2.017337
H    -3.591968  4.307981  2.369271
H    -2.765408  3.874543  3.893205
H    -4.369949  3.182454  3.513854
