29
Energy: -19618.3929403 eV PBE+vdW (tier 2 basis)
C    3.304360  -1.683156  2.064098
C    2.137496  -1.438031  3.001620
O    2.263609  -1.432694  4.223456
H    2.998910  -2.034493  1.070431
H    3.981764  -2.413100  2.518883
H    3.853489  -0.738503  1.945582
N    0.928611  -1.225608  2.383084
C    -0.209301  -0.677853  3.110379
C    0.138217  0.755345  3.608576
O    0.931667  1.453695  2.982187
H    0.962516  -1.020584  1.391554
H    -1.010838  -0.538190  2.368246
C    -0.747979  -1.684464  4.154126
C    -2.155076  -1.413881  4.585011
N    -3.167661  -1.189242  3.670116
C    -2.663488  -1.352968  5.867788
C    -4.262924  -1.005522  4.380541
N    -4.011812  -1.095846  5.719704
H    -0.075222  -1.729360  5.018614
H    -0.707904  -2.674057  3.674177
H    -2.203416  -1.489231  6.839292
H    -5.253091  -0.802924  3.985075
H    -4.686583  -0.996124  6.468271
N    -0.530931  1.185564  4.711694
C    -0.368807  2.523019  5.245470
H    -1.197079  0.557930  5.151723
H    0.363788  3.043698  4.619953
H    0.002897  2.495172  6.279637
H    -1.317215  3.079407  5.223709
