29
Energy: -19618.1556842 eV PBE+vdW (tier 2 basis)
C    -0.862055  -1.468808  0.145483
C    -0.706424  -0.376717  1.189779
O    -0.079083  0.656150  0.949603
H    -1.409976  -1.055967  -0.711091
H    -1.386492  -2.361904  0.506272
H    0.134062  -1.757687  -0.210781
N    -1.293477  -0.641731  2.394007
C    -1.379483  0.273236  3.537606
C    -2.560301  1.263881  3.325762
O    -3.693946  0.838007  3.561347
H    -1.889703  -1.458705  2.445657
H    -1.770425  -0.337865  4.360706
C    -0.004809  0.774826  4.019552
C    -0.107252  1.455855  5.347268
N    -0.758188  0.858313  6.410354
C    0.391450  2.681551  5.733993
C    -0.656468  1.702241  7.417608
N    0.035383  2.824123  7.059556
H    0.490280  1.417879  3.288151
H    0.627675  -0.122257  4.118253
H    0.962827  3.436212  5.207449
H    -1.059732  1.557840  8.414658
H    0.245251  3.618045  7.651860
N    -2.387358  2.540840  2.883747
C    -1.211608  3.258792  2.413491
H    -3.277655  3.027381  2.830436
H    -1.549012  4.058598  1.743743
H    -0.556752  2.595050  1.838592
H    -0.652036  3.721844  3.240465
