29
Energy: -19618.4864587 eV PBE+vdW (tier 2 basis)
C    0.499894  0.848442  0.644057
C    -0.025221  -0.329413  1.443347
O    0.715437  -1.224069  1.858561
H    1.025204  0.467324  -0.240331
H    1.234956  1.388971  1.253537
H    -0.282918  1.546937  0.324425
N    -1.368277  -0.329784  1.671752
C    -2.025395  -1.395064  2.400033
C    -3.481393  -1.408690  1.914356
O    -4.021245  -0.348815  1.580623
H    -1.986040  0.396568  1.316756
H    -1.491458  -2.326776  2.170627
C    -1.939286  -1.149852  3.938775
C    -2.312158  -2.320893  4.784779
N    -3.592651  -2.505393  5.272101
C    -1.505850  -3.370916  5.176606
C    -3.562023  -3.639766  5.945990
N    -2.318012  -4.205520  5.913586
H    -2.578904  -0.293906  4.192420
H    -0.897257  -0.868766  4.139178
H    -0.457782  -3.584060  5.003394
H    -4.394023  -4.088934  6.478731
H    -2.032103  -5.060968  6.374301
N    -4.154457  -2.587363  1.861278
C    -3.726420  -3.930178  2.206955
H    -5.129636  -2.461776  1.603141
H    -4.044526  -4.633123  1.425178
H    -4.144861  -4.251918  3.171485
H    -2.636711  -3.977279  2.280685
