29
Energy: -19618.7121801 eV PBE+vdW (tier 2 basis)
C    -1.596549  -0.284038  -0.058551
C    -1.848684  0.112669  1.381013
O    -2.935221  0.594197  1.738801
H    -2.397883  -0.960230  -0.380619
H    -0.626210  -0.771054  -0.210889
H    -1.651127  0.611965  -0.690147
N    -0.807843  -0.076119  2.231593
C    -0.939385  0.035748  3.686601
C    -0.846170  1.514098  4.172336
O    0.088627  1.916088  4.864998
H    -0.027155  -0.652144  1.908066
H    -1.940361  -0.341588  3.956692
C    0.147422  -0.803432  4.377304
C    0.259092  -2.201066  3.863330
N    0.751819  -2.461196  2.592979
C    -0.067190  -3.387886  4.481382
C    0.721566  -3.773239  2.449574
N    0.234334  -4.378912  3.569623
H    -0.060770  -0.811061  5.453864
H    1.108432  -0.282311  4.260617
H    -0.468668  -3.609065  5.462486
H    1.039276  -4.327850  1.573078
H    0.128686  -5.375290  3.715214
N    -1.896854  2.271904  3.773077
C    -1.981104  3.691550  4.048067
H    -2.553173  1.829296  3.117480
H    -2.963755  3.946901  4.467341
H    -1.824005  4.289519  3.137496
H    -1.202149  3.947544  4.774194
