29
Energy: -19618.3218697 eV PBE+vdW (tier 2 basis)
C    -0.278750  0.785935  -0.423696
C    0.263844  0.193138  0.861319
O    1.468554  0.107108  1.092608
H    -0.956378  1.626552  -0.221570
H    -0.835677  0.041599  -1.009115
H    0.572094  1.140615  -1.010911
N    -0.649446  -0.238150  1.795754
C    -2.086975  -0.404155  1.649599
C    -2.792386  0.341049  2.804213
O    -3.065967  1.532645  2.706690
H    -0.211803  -0.617171  2.632356
H    -2.398373  0.138449  0.750954
C    -2.473841  -1.895456  1.464332
C    -1.942629  -2.436403  0.177111
N    -2.656298  -2.302455  -0.998621
C    -0.714144  -3.008757  -0.079045
C    -1.878229  -2.788278  -1.947239
N    -0.688777  -3.228195  -1.438885
H    -3.569190  -1.988664  1.462984
H    -2.083294  -2.494573  2.303376
H    0.128232  -3.245363  0.559114
H    -2.122975  -2.853026  -3.002330
H    0.075800  -3.639479  -1.960573
N    -3.026192  -0.395125  3.931605
C    -3.646744  0.167435  5.117032
H    -2.848599  -1.391709  3.904758
H    -3.049374  -0.052542  6.011742
H    -4.665345  -0.220104  5.263702
H    -3.700790  1.251990  4.976878
