29
Energy: -19618.2230628 eV PBE+vdW (tier 2 basis)
C    -0.764635  -0.576592  0.221234
C    -0.682583  -0.672522  1.730233
O    0.120398  -1.415445  2.292108
H    -1.779101  -0.425371  -0.164672
H    -0.332849  -1.489985  -0.197365
H    -0.153678  0.274134  -0.113631
N    -1.512399  0.124119  2.489297
C    -2.564572  1.067533  2.105487
C    -3.695270  0.381329  1.298848
O    -3.928995  0.661758  0.123279
H    -1.319073  0.032030  3.481974
H    -3.002757  1.403531  3.057025
C    -2.065094  2.338155  1.392352
C    -3.044888  3.458384  1.528557
N    -3.324078  4.013797  2.764488
C    -3.808481  4.064946  0.556919
C    -4.232064  4.944893  2.542736
N    -4.557471  5.015493  1.217559
H    -1.883396  2.129695  0.331846
H    -1.111655  2.623004  1.859579
H    -3.900382  3.885977  -0.506770
H    -4.679795  5.592103  3.289877
H    -5.227685  5.645607  0.794563
N    -4.426903  -0.564799  1.956788
C    -4.266127  -1.056438  3.314802
H    -5.112541  -1.021293  1.363456
H    -5.178762  -1.590473  3.601601
H    -4.136326  -0.228331  4.024210
H    -3.411671  -1.741751  3.416616
