29
Energy: -19618.3184883 eV PBE+vdW (tier 2 basis)
C    -2.435285  3.141052  1.823088
C    -1.760930  2.090529  0.959021
O    -0.618780  2.227496  0.531599
H    -1.781317  4.015592  1.866404
H    -2.591183  2.762861  2.843599
H    -3.413940  3.440743  1.422203
N    -2.499296  0.972206  0.650031
C    -3.773767  0.579195  1.205054
C    -3.684934  0.201446  2.710106
O    -2.667485  -0.248996  3.228363
H    -1.968083  0.245707  0.174922
H    -4.471776  1.429498  1.125610
C    -4.386845  -0.565011  0.365188
C    -3.509843  -1.755810  0.103863
N    -3.681392  -2.473257  -1.065955
C    -2.502882  -2.321836  0.861824
C    -2.801952  -3.454646  -1.017482
N    -2.063449  -3.403410  0.129812
H    -4.672364  -0.157733  -0.614690
H    -5.323387  -0.887167  0.848586
H    -2.075731  -2.044175  1.818315
H    -2.652771  -4.214878  -1.777172
H    -1.309924  -4.027222  0.392134
N    -4.845744  0.412128  3.396092
C    -5.012167  0.060184  4.793715
H    -5.633006  0.810838  2.898160
H    -5.762391  -0.732976  4.922040
H    -5.312101  0.933811  5.388187
H    -4.045275  -0.303170  5.157384
