29
Energy: -19618.4404781 eV PBE+vdW (tier 2 basis)
C    0.090357  0.374362  1.179742
C    -0.303726  0.440937  2.640756
O    0.470263  0.812778  3.521858
H    -0.172151  1.332753  0.709219
H    -0.430538  -0.423375  0.634935
H    1.172009  0.229824  1.102885
N    -1.597046  0.059574  2.902560
C    -2.248024  0.375338  4.168061
C    -2.898076  -0.893418  4.759972
O    -4.119440  -1.046182  4.779970
H    -2.209669  -0.061116  2.101685
H    -1.438138  0.724637  4.824901
C    -3.293413  1.498567  4.011365
C    -2.723614  2.734259  3.395065
N    -2.570457  2.859523  2.024594
C    -2.240005  3.862892  4.021857
C    -2.005314  4.036460  1.830549
N    -1.785412  4.683330  3.012339
H    -3.709217  1.719903  5.003275
H    -4.130059  1.126223  3.404704
H    -2.175169  4.143876  5.065849
H    -1.746016  4.470254  0.870290
H    -1.369370  5.598875  3.129842
N    -2.057118  -1.843095  5.266518
C    -0.606013  -1.907701  5.204714
H    -2.552257  -2.676599  5.571103
H    -0.230352  -2.430817  6.092882
H    -0.164835  -0.905625  5.187646
H    -0.253199  -2.439434  4.306864
