29
Energy: -19618.6057213 eV PBE+vdW (tier 2 basis)
C    0.231015  1.658359  2.348400
C    0.009936  0.735961  3.535000
O    0.762847  0.728497  4.506401
H    0.435163  1.086844  1.431540
H    1.094192  2.291136  2.569466
H    -0.644627  2.292714  2.152022
N    -1.084949  -0.094226  3.483051
C    -2.067856  -0.197757  2.417161
C    -3.234433  0.817294  2.497533
O    -4.045597  0.904232  1.576115
H    -1.195189  -0.741518  4.270073
H    -1.587337  -0.010558  1.446400
C    -2.664875  -1.624764  2.373112
C    -3.395351  -1.986300  3.625519
N    -2.732411  -2.122582  4.834365
C    -4.746221  -2.177870  3.811651
C    -3.662458  -2.395150  5.730075
N    -4.899771  -2.441156  5.156715
H    -1.844729  -2.335449  2.195021
H    -3.348244  -1.672032  1.517326
H    -5.584316  -2.138504  3.127194
H    -3.497945  -2.569862  6.788057
H    -5.772075  -2.648316  5.627386
N    -3.283099  1.552683  3.636667
C    -4.326907  2.518674  3.906314
H    -2.563738  1.369627  4.329114
H    -3.904508  3.512870  4.106794
H    -4.938960  2.215392  4.768050
H    -4.966558  2.572763  3.018475
