29
Energy: -19618.4936232 eV PBE+vdW (tier 2 basis)
C    -0.520839  0.510223  0.168185
C    -0.453438  0.244456  1.658970
O    0.622109  0.289573  2.268831
H    -0.050253  1.478743  -0.038997
H    -1.538597  0.508812  -0.240361
H    0.068749  -0.257724  -0.348755
N    -1.642517  -0.043296  2.258427
C    -1.857825  -0.428097  3.664039
C    -1.674030  0.759045  4.650622
O    -2.621253  1.135289  5.347043
H    -2.470509  -0.003986  1.677827
H    -2.928743  -0.655188  3.735863
C    -1.066635  -1.695691  4.035734
C    -1.463265  -2.334495  5.332082
N    -0.932648  -3.566904  5.668668
C    -2.320306  -1.902724  6.324129
C    -1.454878  -3.875168  6.839267
N    -2.302488  -2.899228  7.278702
H    0.011315  -1.482538  4.045492
H    -1.216899  -2.430871  3.229875
H    -2.901708  -0.995470  6.440208
H    -1.260320  -4.780416  7.405348
H    -2.822362  -2.895386  8.147438
N    -0.431046  1.291412  4.687753
C    -0.087304  2.410442  5.541350
H    0.238984  0.951089  3.988276
H    -0.941553  2.618540  6.194035
H    0.135706  3.310973  4.950356
H    0.789552  2.171586  6.158591
