29
Energy: -19618.3444425 eV PBE+vdW (tier 2 basis)
C    -0.620507  0.227511  -0.618825
C    -0.040853  0.649518  0.716440
O    1.099195  1.093522  0.818638
H    0.211538  -0.006186  -1.289171
H    -1.179738  1.069548  -1.050400
H    -1.302290  -0.628822  -0.559898
N    -0.834352  0.519631  1.841217
C    -2.258553  0.194827  1.935185
C    -2.570406  -1.267412  1.519552
O    -3.624024  -1.577510  0.968661
H    -0.412816  0.959845  2.654613
H    -2.483554  0.242314  3.011892
C    -3.215399  1.199103  1.246205
C    -4.498395  1.363279  1.994931
N    -4.530301  2.021865  3.210673
C    -5.756911  0.908736  1.671868
C    -5.786124  1.972803  3.612202
N    -6.569893  1.309161  2.710772
H    -3.424377  0.877803  0.219148
H    -2.702354  2.170238  1.208081
H    -6.120861  0.321866  0.838435
H    -6.181341  2.398922  4.528573
H    -7.564436  1.136361  2.789429
N    -1.602720  -2.161989  1.861816
C    -1.703384  -3.578257  1.573176
H    -0.732888  -1.782724  2.220513
H    -0.966117  -3.889704  0.818759
H    -2.708989  -3.767656  1.182874
H    -1.552276  -4.176048  2.482211
