29
Energy: -19618.2514865 eV PBE+vdW (tier 2 basis)
C    0.261429  -0.315888  0.182059
C    0.086856  -0.093213  1.674442
O    1.036306  -0.060293  2.449900
H    0.985004  0.413169  -0.201342
H    -0.669727  -0.235430  -0.393018
H    0.687816  -1.315181  0.026826
N    -1.210611  0.067113  2.092760
C    -1.568473  0.193698  3.503757
C    -2.955381  -0.439791  3.714429
O    -3.101519  -1.544342  4.222540
H    -1.957594  -0.013228  1.413295
H    -0.863382  -0.415411  4.082622
C    -1.455675  1.656392  4.005413
C    -1.833359  1.799625  5.444150
N    -0.999779  1.350365  6.449472
C    -2.995364  2.306102  5.989599
C    -1.639263  1.581320  7.578106
N    -2.855701  2.162170  7.354034
H    -2.065630  2.326672  3.378699
H    -0.409213  1.960321  3.865793
H    -3.880636  2.747217  5.547248
H    -1.275690  1.354488  8.575048
H    -3.529946  2.440632  8.056283
N    -4.004577  0.299419  3.226433
C    -5.382826  -0.117982  3.405600
H    -3.827596  1.267852  2.985898
H    -5.989567  0.201381  2.549549
H    -5.821514  0.291185  4.329616
H    -5.400062  -1.210373  3.477647
