29
Energy: -19618.4081041 eV PBE+vdW (tier 2 basis)
C    -1.268475  -0.147501  0.505057
C    -0.668571  -0.044965  1.895140
O    0.208778  0.775386  2.149539
H    -0.520032  -0.604282  -0.156950
H    -1.451719  0.868660  0.139583
H    -2.187870  -0.736482  0.432960
N    -1.073342  -0.950287  2.858454
C    -2.292646  -1.762137  2.892701
C    -2.325387  -2.886185  1.833763
O    -3.385237  -3.330002  1.397445
H    -0.677161  -0.724012  3.767963
H    -2.247181  -2.284874  3.861243
C    -3.602605  -0.950471  2.916140
C    -3.599903  0.037226  4.037485
N    -3.233592  -0.331178  5.319329
C    -3.903711  1.380051  4.005734
C    -3.323742  0.764682  6.049136
N    -3.730459  1.829251  5.298874
H    -4.428922  -1.667396  3.020129
H    -3.763130  -0.432545  1.961346
H    -4.216329  2.037328  3.203723
H    -3.107951  0.844878  7.109546
H    -3.862834  2.779265  5.623111
N    -1.099823  -3.366185  1.486804
C    -0.917866  -4.442410  0.535014
H    -0.293392  -2.889550  1.876331
H    -0.356418  -5.275018  0.980911
H    -0.385080  -4.098176  -0.363389
H    -1.911638  -4.798512  0.242819
