29
Energy: -19618.3556792 eV PBE+vdW (tier 2 basis)
C    -2.932409  2.295796  -0.737116
C    -1.948229  1.760940  0.284507
O    -0.735745  1.917680  0.161728
H    -3.873604  2.649891  -0.294868
H    -3.168440  1.494670  -1.452530
H    -2.452136  3.115682  -1.278562
N    -2.457611  1.082603  1.364105
C    -3.817543  0.679911  1.639591
C    -3.826242  0.127923  3.076455
O    -2.834158  -0.399841  3.577028
H    -1.764044  0.652478  1.976078
H    -4.486817  1.556149  1.604549
C    -4.403462  -0.396631  0.655660
C    -3.399820  -1.390433  0.171000
N    -2.975639  -1.359653  -1.144084
C    -2.718011  -2.369826  0.862909
C    -2.057357  -2.300979  -1.248478
N    -1.867161  -2.940633  -0.057202
H    -4.801210  0.115614  -0.228807
H    -5.256675  -0.888488  1.147293
H    -2.733354  -2.671247  1.902687
H    -1.505511  -2.558298  -2.146253
H    -1.207496  -3.686603  0.127169
N    -5.023330  0.233425  3.717390
C    -5.260322  -0.308373  5.042634
H    -5.780719  0.709130  3.241768
H    -5.606557  0.474143  5.730956
H    -4.310120  -0.709670  5.409589
H    -6.004277  -1.117362  5.018805
