29
Energy: -19618.1797763 eV PBE+vdW (tier 2 basis)
C    0.011091  0.813732  1.026343
C    -0.027696  0.430886  2.491189
O    0.741530  0.905764  3.324820
H    0.900855  1.425509  0.858179
H    -0.880378  1.392249  0.745130
H    0.037083  -0.067325  0.371139
N    -0.975906  -0.491866  2.869039
C    -2.058860  -1.043267  2.068407
C    -3.118679  -0.018440  1.600412
O    -3.507954  -0.035244  0.434495
H    -0.954919  -0.701378  3.863426
H    -1.659504  -1.447437  1.127933
C    -2.710508  -2.221697  2.831735
C    -3.714231  -2.962448  2.012710
N    -3.315773  -3.872403  1.054315
C    -5.087054  -2.844111  2.012392
C    -4.424843  -4.296012  0.481611
N    -5.527178  -3.702359  1.028741
H    -3.176934  -1.858381  3.759608
H    -1.902281  -2.911610  3.116597
H    -5.766913  -2.231897  2.592050
H    -4.491487  -5.025753  -0.318570
H    -6.490876  -3.855456  0.758434
N    -3.631193  0.885491  2.493527
C    -3.294460  1.146510  3.885950
H    -4.288379  1.519429  2.049691
H    -4.060634  1.812285  4.299224
H    -2.315076  1.630740  4.006352
H    -3.306308  0.229819  4.489503
