29
Energy: -19618.4742704 eV PBE+vdW (tier 2 basis)
C    0.565167  0.205811  0.652840
C    0.185700  -0.094744  2.090011
O    0.634096  -1.074926  2.694327
H    1.658572  0.221035  0.570258
H    0.159139  1.155979  0.285778
H    0.198464  -0.609138  0.015501
N    -0.671977  0.790398  2.663460
C    -1.164641  0.595726  4.013736
C    -2.330525  -0.418492  4.036796
O    -3.354568  -0.234665  3.380405
H    -1.093493  1.555974  2.131542
H    -0.326810  0.213999  4.610004
C    -1.608650  1.949196  4.619160
C    -2.639164  2.685358  3.824891
N    -2.389622  3.099126  2.526831
C    -3.920998  3.032163  4.183700
C    -3.502553  3.671785  2.107904
N    -4.457638  3.659723  3.080157
H    -0.705750  2.571671  4.714975
H    -1.987208  1.770965  5.634990
H    -4.492932  2.862549  5.087035
H    -3.666306  4.109359  1.129007
H    -5.395112  4.034001  3.004555
N    -2.187871  -1.500783  4.856985
C    -0.972794  -1.979531  5.507863
H    -2.985226  -2.128468  4.820228
H    -0.122320  -1.958758  4.812767
H    -1.138547  -3.016471  5.820219
H    -0.728431  -1.396840  6.409075
