29
Energy: -19618.3295453 eV PBE+vdW (tier 2 basis)
C    -0.494946  1.659838  1.706685
C    -1.517770  1.714147  2.831585
O    -1.229310  2.147896  3.945698
H    0.451278  2.046720  2.093597
H    -0.808676  2.275946  0.851453
H    -0.337596  0.637258  1.336639
N    -2.782069  1.272757  2.550590
C    -3.296265  0.721950  1.316560
C    -4.816041  1.006436  1.322746
O    -5.385870  1.331592  2.364281
H    -3.492712  1.417785  3.269630
H    -2.835997  1.233347  0.456459
C    -3.007158  -0.810214  1.184491
C    -3.873449  -1.653795  2.058419
N    -5.024882  -2.239121  1.563908
C    -3.756768  -1.907401  3.408379
C    -5.592632  -2.836479  2.594909
N    -4.860839  -2.663757  3.734396
H    -1.946569  -0.960804  1.425400
H    -3.147516  -1.131695  0.144945
H    -3.018031  -1.610230  4.142339
H    -6.516457  -3.404955  2.574262
H    -5.087085  -3.019640  4.655043
N    -5.497480  0.889085  0.150987
C    -5.039049  0.361022  -1.121692
H    -6.501177  0.977216  0.280972
H    -5.682130  0.753109  -1.918355
H    -5.070181  -0.739050  -1.149187
H    -4.016457  0.694379  -1.336058
