29
Energy: -19618.5978201 eV PBE+vdW (tier 2 basis)
C    -0.296642  0.221339  0.108042
C    -0.189987  0.036399  1.607581
O    0.892758  0.136912  2.198461
H    0.401555  -0.464405  -0.386777
H    0.016243  1.243778  -0.139168
H    -1.306384  0.053207  -0.285966
N    -1.350940  -0.249049  2.255693
C    -1.466763  -0.280422  3.714637
C    -1.025800  -1.659314  4.281611
O    -1.829773  -2.467312  4.745894
H    -2.212968  -0.261126  1.721861
H    -0.784953  0.491706  4.101904
C    -2.903068  0.041740  4.140392
C    -3.407294  1.325879  3.566469
N    -2.776166  2.530808  3.811630
C    -4.495360  1.526246  2.742201
C    -3.469526  3.440756  3.156879
N    -4.524265  2.883485  2.490931
H    -2.920318  0.083665  5.238365
H    -3.561128  -0.793193  3.861759
H    -5.242613  0.849721  2.344643
H    -3.258627  4.505038  3.128714
H    -5.210139  3.372998  1.929431
N    0.315570  -1.854188  4.209253
C    0.943273  -3.102347  4.592612
H    0.848348  -1.149599  3.688982
H    1.813982  -2.914886  5.234974
H    1.273632  -3.677186  3.713910
H    0.209353  -3.698648  5.145085
