29
Energy: -19618.5031341 eV PBE+vdW (tier 2 basis)
C    -1.278641  -2.528907  0.680645
C    -0.873998  -1.642374  1.842608
O    0.213832  -1.061002  1.871934
H    -0.606079  -3.396055  0.643056
H    -1.142157  -1.969289  -0.252351
H    -2.314465  -2.883115  0.745226
N    -1.781712  -1.579540  2.862196
C    -1.658960  -0.607221  3.940957
C    -1.610202  -1.250610  5.347150
O    -2.358925  -0.874653  6.250587
H    -2.742234  -1.893092  2.687872
H    -0.696926  -0.095383  3.771729
C    -2.794044  0.433190  3.851752
C    -4.173888  -0.147261  3.914475
N    -4.581730  -1.179067  3.081867
C    -5.208966  0.202925  4.749960
C    -5.832870  -1.445582  3.412701
N    -6.257270  -0.627758  4.416028
H    -2.659052  0.972593  2.901360
H    -2.677134  1.159207  4.664850
H    -5.273721  0.922364  5.555874
H    -6.465172  -2.203366  2.962860
H    -7.172567  -0.634433  4.848389
N    -0.686452  -2.229958  5.569457
C    0.352016  -2.750696  4.695106
H    -0.741743  -2.602098  6.512512
H    1.215615  -3.039980  5.306719
H    0.686212  -1.993264  3.976835
H    0.014338  -3.632090  4.128140
