29
Energy: -19618.1621507 eV PBE+vdW (tier 2 basis)
C    -0.577729  0.663546  -0.249138
C    -0.194359  0.279926  1.160993
O    0.967826  0.319130  1.560220
H    -1.396616  0.068154  -0.669969
H    0.310986  0.575375  -0.880327
H    -0.897902  1.715498  -0.235709
N    -1.192234  -0.099020  2.034446
C    -2.631928  -0.246805  1.840721
C    -2.985968  -1.316017  0.774994
O    -3.696119  -1.056364  -0.194749
H    -0.839634  -0.209699  2.979416
H    -2.997856  -0.638283  2.803817
C    -3.402466  1.064887  1.560014
C    -3.000260  2.182996  2.463842
N    -1.982566  3.051487  2.116110
C    -3.490152  2.513994  3.710877
C    -1.858799  3.889117  3.126777
N    -2.750544  3.603979  4.121434
H    -4.474936  0.849290  1.656455
H    -3.245706  1.365332  0.518095
H    -4.284091  2.096504  4.318562
H    -1.152118  4.709836  3.192650
H    -2.866167  4.110727  4.990490
N    -2.483306  -2.572527  0.963754
C    -1.651816  -3.083071  2.041391
H    -2.725995  -3.208433  0.210736
H    -0.599214  -2.782377  1.942598
H    -1.707784  -4.177542  2.030517
H    -2.017141  -2.748433  3.021890
