29
Energy: -19618.4657445 eV PBE+vdW (tier 2 basis)
C    0.006327  0.667862  0.185478
C    -0.454482  -0.411653  1.149865
O    0.101501  -1.502239  1.225485
H    0.280273  0.200355  -0.766273
H    0.908990  1.138328  0.598973
H    -0.742828  1.449423  0.005353
N    -1.529356  -0.065325  1.930754
C    -1.982172  -0.853187  3.077172
C    -0.768567  -1.266184  3.958835
O    -0.068861  -0.371944  4.437346
H    -1.808929  0.907391  1.912453
H    -2.506872  -0.137397  3.727208
C    -3.043650  -1.917993  2.690018
C    -2.629012  -2.950777  1.695726
N    -1.893068  -4.058642  2.071327
C    -2.821752  -2.964679  0.332859
C    -1.628869  -4.718934  0.960187
N    -2.176069  -4.095224  -0.120380
H    -3.909655  -1.370141  2.291927
H    -3.380257  -2.413026  3.613074
H    -3.329193  -2.280924  -0.335744
H    -1.060228  -5.639112  0.883020
H    -2.113695  -4.401573  -1.083130
N    -0.606879  -2.582014  4.227933
C    0.534996  -3.024494  5.006706
H    -1.035133  -3.267735  3.591211
H    0.381908  -4.069579  5.298838
H    0.633670  -2.406331  5.906387
H    1.475020  -2.943073  4.438101
