29
Energy: -19618.1891494 eV PBE+vdW (tier 2 basis)
C    -0.039939  1.517298  1.512469
C    0.047590  0.127327  2.108099
O    1.005147  -0.248563  2.780875
H    -0.814459  2.114449  2.014071
H    -0.297926  1.494523  0.445159
H    0.928636  2.005143  1.647158
N    -1.002515  -0.727867  1.861112
C    -2.284369  -0.422984  1.238764
C    -3.140218  0.601504  2.026239
O    -3.631187  1.563941  1.431953
H    -0.887002  -1.639073  2.296740
H    -2.106653  0.086765  0.280428
C    -3.009007  -1.748565  0.951906
C    -4.286437  -1.670736  0.173781
N    -5.009253  -2.830350  -0.038264
C    -4.911029  -0.604131  -0.438067
C    -6.050827  -2.475037  -0.764230
N    -6.035790  -1.136447  -1.032758
H    -3.213196  -2.283401  1.893327
H    -2.300149  -2.386332  0.398487
H    -4.682452  0.454073  -0.465677
H    -6.835538  -3.135298  -1.118850
H    -6.728340  -0.617146  -1.558059
N    -3.331679  0.441225  3.367126
C    -2.826294  -0.568667  4.286581
H    -3.881037  1.197150  3.764165
H    -3.375207  -0.470806  5.229581
H    -1.754072  -0.450243  4.496901
H    -3.003820  -1.585541  3.915024
