32
Energy: -170819.533857 eV PBE+vdW (tier 2 basis)
C    0.447210  0.300095  0.854036
C    0.537893  -0.394199  2.178972
O    1.698721  -0.396598  2.735737
H    1.452022  0.487234  0.465768
H    -0.060737  1.268679  0.981339
H    -0.116045  -0.297899  0.126525
N    -0.513235  -0.975589  2.735752
C    -1.878920  -1.084920  2.221476
C    -2.734615  -1.126960  3.506737
O    -2.235938  -1.614128  4.525487
H    -0.435140  -1.398368  3.670984
H    -2.108699  -0.211509  1.600648
C    -2.044180  -2.402510  1.343774
C    -3.393653  -2.475902  0.607888
C    -1.679279  -3.671066  2.107666
C    -4.566704  -3.123876  1.332799
H    -1.275000  -2.240503  0.566389
H    -3.203315  -3.066155  -0.308312
H    -3.665357  -1.481332  0.216649
H    -2.323929  -3.849324  2.979891
H    -0.637695  -3.666984  2.452318
H    -1.793523  -4.541335  1.446944
H    -5.480699  -3.047782  0.732007
H    -4.779412  -2.651398  2.308498
H    -4.393550  -4.187607  1.539877
N    -4.006948  -0.649165  3.515449
C    -4.673139  0.229021  2.569062
H    -4.450239  -0.751446  4.432362
H    -5.750551  0.026663  2.605760
H    -4.313163  0.063805  1.550520
H    -4.521528  1.286423  2.841626
Cd    2.592867  -0.465207  4.684731
