32
Energy: -170820.410835 eV PBE+vdW (tier 2 basis)
C    -1.470434  -1.836569  -0.111214
C    -0.357331  -1.071893  0.497305
O    0.839740  -1.531881  0.419000
H    -1.292117  -2.003165  -1.182385
H    -2.450053  -1.383033  0.063980
H    -1.460599  -2.838237  0.352929
N    -0.551994  0.095247  1.167065
C    -1.380268  1.239872  0.786575
C    -0.493876  2.176161  -0.086664
O    0.783284  2.029610  -0.242863
H    0.115558  0.276390  1.921811
H    -2.189287  0.866172  0.142152
C    -1.998549  1.916112  2.066710
C    -3.493197  2.274531  1.905091
C    -1.141823  3.056524  2.631097
C    -3.887622  3.312531  0.851958
H    -1.984055  1.099022  2.806087
H    -3.827066  2.632014  2.889897
H    -4.058656  1.347215  1.725285
H    -0.085938  2.773133  2.761857
H    -1.513909  3.335335  3.624030
H    -1.167553  3.963468  2.013512
H    -3.803444  2.927805  -0.181309
H    -3.336668  4.259706  0.950818
H    -4.948638  3.570190  0.957871
N    -1.071882  3.196811  -0.673524
C    -0.391308  4.192236  -1.509076
H    -2.063219  3.351360  -0.464170
H    -1.150929  4.737828  -2.075068
H    0.297867  3.695957  -2.199461
H    0.170770  4.895737  -0.881256
Cd    1.951484  0.285983  0.064904
