32
Energy: -170821.095462 eV PBE+vdW (tier 2 basis)
C    -1.548400  -0.962253  -0.097547
C    -1.041580  -0.775455  1.298495
O    0.193868  -1.008773  1.494209
H    -1.304270  -1.981606  -0.426647
H    -1.009332  -0.276514  -0.765726
H    -2.626116  -0.798151  -0.199583
N    -1.930070  -0.378715  2.226576
C    -1.918198  -0.214366  3.704306
C    -1.061947  0.952312  4.215899
O    0.188936  1.104327  3.986844
H    -2.857703  -0.242249  1.834424
H    -2.945296  0.117096  3.891382
C    -1.836593  -1.539317  4.556833
C    -0.665162  -2.526210  4.346844
C    -3.157528  -2.303793  4.357324
C    0.722181  -2.164405  4.925361
H    -1.804121  -1.187034  5.602839
H    -0.592627  -2.807447  3.287205
H    -0.973511  -3.454520  4.845234
H    -4.030787  -1.668254  4.554693
H    -3.213966  -3.155757  5.044922
H    -3.245893  -2.702371  3.336966
H    1.068252  -2.878357  5.690189
H    0.773135  -1.194861  5.451629
H    1.570176  -2.323841  4.191764
N    -1.648817  1.865831  4.974876
C    -3.058918  1.992885  5.369178
H    -1.012788  2.590274  5.312890
H    -3.704162  2.144866  4.494820
H    -3.144878  2.875901  6.008527
H    -3.392128  1.122006  5.946242
Cd    1.366242  -0.453252  3.164035
