32
Energy: -170821.131991 eV PBE+vdW (tier 2 basis)
C    -0.615397  -0.188506  -0.296633
C    -0.440198  0.109568  1.154566
O    0.396994  1.034889  1.456958
H    -1.310307  -1.015011  -0.480365
H    0.360126  -0.407473  -0.749615
H    -0.998946  0.717125  -0.790976
N    -1.160731  -0.582314  2.047309
C    -1.484949  -0.248391  3.449605
C    -0.518685  -0.930705  4.446518
O    0.685808  -0.489499  4.601073
H    -1.763657  -1.302735  1.650325
H    -1.298205  0.835081  3.582502
C    -3.006201  -0.455676  3.698431
C    -3.545121  -1.822713  3.199546
C    -3.789620  0.717835  3.093666
C    -4.822286  -2.263146  3.923309
H    -3.131065  -0.405538  4.793428
H    -2.790858  -2.626111  3.294653
H    -3.762449  -1.753667  2.119415
H    -3.652347  0.781892  2.004648
H    -3.497642  1.678249  3.539130
H    -4.862770  0.593653  3.275780
H    -5.180559  -3.218382  3.522977
H    -5.631444  -1.533275  3.801678
H    -4.652762  -2.395154  5.001333
N    -0.924995  -1.940156  5.179647
C    -0.125508  -2.646539  6.187274
H    -1.876289  -2.269456  5.021710
H    0.274641  -3.575039  5.759559
H    -0.774031  -2.890488  7.034907
H    0.698619  -2.009508  6.516438
Cd    1.297839  1.096188  3.357205
