32
Energy: -170820.741843 eV PBE+vdW (tier 2 basis)
C    -0.273462  -0.778472  0.283779
C    0.094477  0.088890  1.422434
O    1.239142  0.518190  1.603010
H    -1.169517  -0.401844  -0.230292
H    -0.548614  -1.774390  0.675534
H    0.563838  -0.880713  -0.412062
N    -0.885124  0.459794  2.447013
C    -1.961433  1.440147  2.082403
C    -1.679828  2.847275  2.699524
O    -0.627731  3.158311  3.354750
H    -1.347443  -0.375928  2.833798
H    -1.913675  1.610248  0.993705
C    -3.365800  0.845538  2.416950
C    -3.481500  0.282504  3.846997
C    -3.767127  -0.201487  1.369720
C    -3.189773  1.243333  4.998604
H    -4.081467  1.679335  2.336844
H    -2.868753  -0.634984  3.950775
H    -4.510042  -0.094178  3.942970
H    -3.133064  -1.100494  1.412038
H    -3.736231  0.197908  0.346930
H    -4.792711  -0.541549  1.555868
H    -3.803238  2.152224  4.936026
H    -2.134537  1.554253  5.049216
H    -3.418244  0.767160  5.959341
N    -2.571517  3.787791  2.463831
C    -2.441732  5.179232  2.920740
H    -3.410461  3.538795  1.946517
H    -3.269466  5.754271  2.498770
H    -1.489756  5.600350  2.578950
H    -2.485055  5.223321  4.015651
Cd    0.856021  1.645650  3.541313
