32
Energy: -170821.160844 eV PBE+vdW (tier 2 basis)
C    -1.090461  -0.203281  -0.617372
C    -1.166522  0.175378  0.826674
O    -0.466124  -0.511358  1.639698
H    -1.666926  0.458714  -1.272156
H    -1.459831  -1.233048  -0.728987
H    -0.038278  -0.208181  -0.931647
N    -1.967037  1.200232  1.164731
C    -2.362428  1.783837  2.473602
C    -1.194900  2.569739  3.124700
O    -0.272432  1.990234  3.795342
H    -2.430261  1.631759  0.369271
H    -3.119084  2.531220  2.197404
C    -3.098856  0.859765  3.484502
C    -4.155077  -0.069797  2.839700
C    -3.668038  1.725737  4.613632
C    -3.686175  -1.485330  2.508660
H    -2.377858  0.142936  3.993003
H    -4.562784  0.418218  1.939873
H    -4.991579  -0.135954  3.548045
H    -4.108490  1.092743  5.392417
H    -4.470332  2.369674  4.224046
H    -2.916463  2.367310  5.092779
H    -4.532229  -2.103591  2.184903
H    -3.266759  -1.979924  3.400289
H    -2.940355  -1.527340  1.705717
N    -1.184110  3.880806  2.983153
C    -0.170488  4.789685  3.531459
H    -1.955890  4.308297  2.475459
H    -0.604331  5.366924  4.357788
H    0.151216  5.478046  2.742004
H    0.681744  4.210958  3.893281
Cd    -0.288289  -0.147122  3.718010
