32
Energy: -170820.354314 eV PBE+vdW (tier 2 basis)
C    0.581614  0.556802  0.778127
C    0.177417  0.556863  2.203714
O    1.083762  0.544455  3.116312
H    1.219289  1.422390  0.551186
H    -0.268960  0.498307  0.093403
H    1.218810  -0.331064  0.624152
N    -1.121574  0.544650  2.591800
C    -2.227620  1.393137  2.124137
C    -1.969364  2.807836  2.678015
O    -1.399158  2.994603  3.831940
H    -1.295284  0.113723  3.504293
H    -2.229768  1.415221  1.026371
C    -3.565236  0.768953  2.640971
C    -3.774702  -0.599271  1.954531
C    -4.774713  1.692616  2.481477
C    -4.884496  -1.443465  2.584013
H    -3.415635  0.602975  3.726716
H    -2.836606  -1.176817  1.978592
H    -3.995157  -0.422314  0.888559
H    -4.654505  2.656160  2.993379
H    -5.652316  1.215578  2.930800
H    -5.015794  1.870222  1.425036
H    -4.926197  -2.425764  2.098778
H    -5.874152  -0.985616  2.469736
H    -4.709139  -1.613069  3.655494
N    -2.358452  3.890617  2.035620
C    -3.095693  4.039399  0.778011
H    -2.152055  4.762121  2.531409
H    -2.593673  4.806478  0.176787
H    -4.122852  4.364006  0.985042
H    -3.123161  3.101538  0.219663
Cd    0.277649  1.920816  4.573414
