32
Energy: -170820.002578 eV PBE+vdW (tier 2 basis)
C    -0.299973  0.561246  -0.079801
C    -0.253989  0.213664  1.367521
O    0.931329  -0.048632  1.844208
H    0.317857  1.451051  -0.263394
H    -1.323962  0.740399  -0.425076
H    0.142742  -0.261733  -0.658974
N    -1.368212  0.174123  2.071366
C    -1.615509  -0.252026  3.449577
C    -3.151672  -0.615859  3.403741
O    -3.810581  -0.050651  2.531873
H    -2.285300  0.372392  1.619370
H    -1.038625  -1.175055  3.655059
C    -1.308594  0.903580  4.481873
C    -0.985161  0.427488  5.915526
C    -2.389309  1.991670  4.483880
C    0.333619  -0.324264  6.105692
H    -0.389963  1.437628  4.106292
H    -1.797779  -0.205128  6.297965
H    -0.962874  1.314298  6.562631
H    -2.620051  2.348083  3.473868
H    -2.059536  2.850667  5.079781
H    -3.321065  1.611160  4.924170
H    0.586180  -0.557978  7.156510
H    1.238338  0.345221  5.907937
H    0.373886  -1.338338  5.644915
N    -3.674414  -1.466641  4.300402
C    -3.031855  -2.373814  5.244141
H    -4.682900  -1.576294  4.187375
H    -3.454415  -3.378474  5.123537
H    -3.193468  -2.057472  6.283589
H    -1.956551  -2.451320  5.048912
Cd    1.300120  -0.141063  3.860068
