32
Energy: -170820.730083 eV PBE+vdW (tier 2 basis)
C    -0.755979  -1.288970  0.400414
C    -0.442504  -0.678977  1.724770
O    0.727648  -0.181428  1.876834
H    -0.728771  -0.499675  -0.365557
H    -1.737999  -1.774353  0.380624
H    0.023883  -2.015342  0.137473
N    -1.385952  -0.675780  2.679983
C    -1.306418  0.071748  3.933237
C    -0.413121  -0.616886  4.995082
O    0.658257  0.018950  5.363043
H    -2.294942  -1.055575  2.420612
H    -0.738320  0.994139  3.701573
C    -2.671588  0.674762  4.403248
C    -3.772904  -0.334735  4.778987
C    -3.123054  1.691445  3.340581
C    -5.095839  0.328147  5.179492
H    -2.409072  1.235850  5.316486
H    -3.430610  -0.941940  5.626405
H    -3.968428  -1.030314  3.941746
H    -2.312785  2.376096  3.051930
H    -3.934529  2.310214  3.736514
H    -3.504029  1.205713  2.430937
H    -5.787187  -0.428658  5.567956
H    -5.592294  0.818646  4.334631
H    -4.944839  1.074425  5.971223
N    -0.632605  -1.785165  5.561342
C    -1.666931  -2.800889  5.358861
H    0.086412  -2.032795  6.247571
H    -2.288858  -2.568537  4.495075
H    -2.296281  -2.880871  6.253525
H    -1.162268  -3.762136  5.199251
Cd    1.607626  0.728990  3.594855
