32
Energy: -170821.184559 eV PBE+vdW (tier 2 basis)
C    0.571510  -0.238023  -0.016465
C    0.301898  -0.306709  1.454165
O    1.319198  -0.426272  2.212636
H    -0.336126  -0.167998  -0.624932
H    1.139403  -1.130863  -0.312225
H    1.215406  0.629079  -0.218602
N    -0.980209  -0.234826  1.851613
C    -1.697291  -0.349698  3.155674
C    -1.407503  0.802376  4.134036
O    -0.308909  0.939930  4.781581
H    -1.621348  -0.126872  1.069701
H    -2.739969  -0.205878  2.846488
C    -1.724792  -1.771218  3.807220
C    -2.840205  -1.840359  4.877442
C    -0.419622  -2.352185  4.381653
C    -4.262670  -1.612728  4.364112
H    -2.011658  -2.435822  2.975209
H    -2.609244  -1.144801  5.702404
H    -2.789047  -2.844167  5.323489
H    -0.111978  -1.851693  5.332493
H    0.387607  -2.463782  3.632718
H    -0.578897  -3.385239  4.727795
H    -4.985712  -1.818399  5.162178
H    -4.504724  -2.282075  3.527350
H    -4.458100  -0.579818  4.037992
N    -2.374093  1.674566  4.352146
C    -2.270610  2.797723  5.292534
H    -3.252959  1.554896  3.855737
H    -3.203378  3.365193  5.251978
H    -1.432472  3.446448  5.012725
H    -2.111238  2.424311  6.311221
Cd    1.310447  -0.348916  4.325314
