32
Energy: -170821.114274 eV PBE+vdW (tier 2 basis)
C    -0.520943  -0.247980  -0.273860
C    -0.351720  -0.140647  1.207013
O    0.838686  -0.244358  1.657474
H    -1.556896  -0.115630  -0.603406
H    -0.165916  -1.238777  -0.593276
H    0.122735  0.493001  -0.766050
N    -1.451249  0.048246  1.955292
C    -1.692912  -0.036467  3.419238
C    -1.304229  1.271892  4.138307
O    -0.081838  1.579090  4.388867
H    -2.304366  0.117227  1.406275
H    -2.783160  -0.122337  3.492678
C    -1.153693  -1.303896  4.141350
C    -1.434640  -2.604630  3.357667
C    -1.671225  -1.321251  5.584452
C    -2.913304  -2.900588  3.087988
H    -0.025836  -1.273951  4.223505
H    -1.001106  -3.424882  3.947465
H    -0.875623  -2.597649  2.410413
H    -2.768357  -1.368868  5.606768
H    -1.359536  -0.440203  6.161118
H    -1.296709  -2.207335  6.109989
H    -3.000867  -3.870227  2.583069
H    -3.389746  -2.161135  2.427542
H    -3.503443  -2.966811  4.010034
N    -2.240705  2.110010  4.537985
C    -3.700914  2.001439  4.402324
H    -1.885767  2.936403  5.024106
H    -4.134440  2.946046  4.742470
H    -4.096623  1.194603  5.031235
H    -3.993833  1.854514  3.356560
Cd    1.404241  0.271242  3.628258
