32
Energy: -170819.878603 eV PBE+vdW (tier 2 basis)
C    -0.134746  -0.339206  -0.131382
C    -0.096753  0.012040  1.315407
O    0.999621  -0.014464  1.996755
H    0.196475  -1.378892  -0.263476
H    0.574618  0.301148  -0.678464
H    -1.121119  -0.220631  -0.587970
N    -1.183811  0.325238  2.014728
C    -2.579575  0.146537  1.681662
C    -3.319067  0.996726  2.750750
O    -2.762258  1.238023  3.820259
H    -1.051925  0.603417  3.002296
H    -2.769833  0.507987  0.662061
C    -3.044395  -1.378359  1.761610
C    -4.441976  -1.605586  1.167664
C    -2.894078  -1.959969  3.162028
C    -4.673270  -1.080934  -0.249434
H    -2.317177  -1.869125  1.087321
H    -5.213081  -1.233477  1.859307
H    -4.581214  -2.698331  1.159622
H    -1.882282  -1.846279  3.571631
H    -3.110065  -3.036786  3.130115
H    -3.601742  -1.518883  3.878008
H    -5.641241  -1.424806  -0.632889
H    -3.905425  -1.440087  -0.949790
H    -4.694037  0.020088  -0.321564
N    -4.558803  1.428781  2.430227
C    -5.320992  2.325644  3.280842
H    -4.920690  1.222438  1.500845
H    -5.144791  3.379596  3.008913
H    -5.010928  2.180887  4.321569
H    -6.388826  2.114173  3.146578
Cd    2.995959  0.606164  1.503924
