32
Energy: -170821.133945 eV PBE+vdW (tier 2 basis)
C    -0.619575  -3.384095  0.709212
C    -0.639705  -2.139245  1.531373
O    0.128425  -1.184994  1.152757
H    -0.976670  -3.138284  -0.302340
H    -1.248985  -4.178163  1.125427
H    0.413695  -3.739170  0.604783
N    -1.455333  -2.079068  2.594384
C    -1.880064  -0.883891  3.342700
C    -0.938376  -0.582217  4.530560
O    0.070817  0.210267  4.377347
H    -1.995979  -2.923118  2.778196
H    -1.759243  -0.019270  2.664873
C    -3.409968  -0.926157  3.626800
C    -3.908329  0.417494  4.200859
C    -3.911923  -2.116302  4.461039
C    -3.565785  1.659896  3.376621
H    -3.840001  -1.029724  2.615535
H    -3.551280  0.538695  5.236588
H    -5.001211  0.332197  4.282079
H    -4.991047  -2.230810  4.299667
H    -3.804837  -1.962917  5.546447
H    -3.465605  -3.089396  4.204342
H    -2.494024  1.917841  3.407589
H    -4.092421  2.535594  3.773704
H    -3.869899  1.552569  2.325471
N    -1.158705  -1.116937  5.708487
C    -0.335861  -0.906302  6.905385
H    -2.008287  -1.671985  5.808502
H    -0.400620  -1.801681  7.530727
H    -0.710069  -0.041861  7.469473
H    0.701853  -0.724970  6.613407
Cd    0.668011  0.456003  2.367008
