32
Energy: -170821.228136 eV PBE+vdW (tier 2 basis)
C    -2.367626  0.574789  -0.849643
C    -1.821387  0.723791  0.533204
O    -0.615434  0.348320  0.718769
H    -2.329751  -0.489066  -1.125905
H    -1.715915  1.108124  -1.554406
H    -3.396659  0.935260  -0.951764
N    -2.629788  1.229066  1.479821
C    -2.505488  1.316961  2.959439
C    -1.657982  2.539194  3.383745
O    -0.378037  2.544805  3.307138
H    -3.550547  1.483775  1.131444
H    -3.533533  1.518371  3.291867
C    -2.105793  0.012720  3.709695
C    -2.877798  -1.217370  3.196231
C    -2.234322  0.246139  5.218249
C    -2.431818  -2.540568  3.816362
H    -1.016298  -0.248269  3.530570
H    -2.785531  -1.285671  2.103161
H    -3.948113  -1.046792  3.405652
H    -3.288558  0.402886  5.489700
H    -1.657321  1.111364  5.570151
H    -1.881400  -0.627422  5.775933
H    -2.626618  -2.590223  4.893744
H    -1.359459  -2.725987  3.651791
H    -2.975506  -3.371343  3.351582
N    -2.291049  3.595376  3.853525
C    -1.659932  4.835785  4.319065
H    -3.306918  3.552273  3.904383
H    -2.035406  5.069956  5.321748
H    -1.919426  5.655077  3.637102
H    -0.576220  4.706435  4.346671
Cd    0.513632  0.817244  2.445977
