32
Energy: -170820.340046 eV PBE+vdW (tier 2 basis)
C    -0.106675  -0.004790  -0.395665
C    -0.121865  -0.141308  1.078972
O    0.970361  -0.392281  1.703974
H    0.640556  0.733766  -0.714770
H    -1.092811  0.214256  -0.814711
H    0.233982  -0.973259  -0.802968
N    -1.263316  -0.038450  1.811296
C    -2.315324  0.983763  1.762006
C    -1.718649  2.294792  2.317657
O    -0.801887  2.295906  3.238522
H    -1.270126  -0.587240  2.676296
H    -2.633818  1.130974  0.722474
C    -3.538455  0.456735  2.593299
C    -4.801163  1.313860  2.385150
C    -3.210483  0.255363  4.078075
C    -6.077325  0.660123  2.923729
H    -3.735900  -0.529660  2.137909
H    -4.931973  1.494821  1.306851
H    -4.669304  2.296948  2.866139
H    -2.332038  -0.386874  4.270648
H    -4.040542  -0.263753  4.569859
H    -3.060500  1.207230  4.605416
H    -6.950621  1.262516  2.648039
H    -6.077815  0.576997  4.017108
H    -6.223644  -0.343316  2.501788
N    -2.142326  3.478451  1.922358
C    -3.148653  3.859469  0.926403
H    -1.687575  4.257693  2.405746
H    -2.728697  4.666649  0.315237
H    -4.054503  4.223513  1.425485
H    -3.408433  3.017271  0.282128
Cd    0.727054  0.845527  3.467095
