32
Energy: -170819.844289 eV PBE+vdW (tier 2 basis)
C    -0.401220  0.611708  0.080139
C    -0.275151  0.299105  1.522784
O    0.871103  0.427413  2.096835
H    0.510252  0.347268  -0.465364
H    -0.523058  1.707778  0.001761
H    -1.291565  0.163793  -0.372485
N    -1.323879  -0.100349  2.278769
C    -2.335439  -1.149885  1.970609
C    -1.497576  -2.443247  1.745108
O    -0.545821  -2.701860  2.603954
H    -1.224660  0.115778  3.271098
H    -2.792061  -1.344928  2.956565
C    -3.514369  -0.731207  1.057765
C    -3.902850  0.741360  1.323993
C    -4.703240  -1.669712  1.336828
C    -5.081367  1.223185  0.476012
H    -3.213723  -0.801788  0.000192
H    -3.040306  1.395181  1.129257
H    -4.142558  0.860556  2.394472
H    -5.449865  -1.604214  0.538496
H    -5.196548  -1.380867  2.275621
H    -4.425128  -2.726766  1.433541
H    -5.244429  2.295151  0.637267
H    -6.017890  0.713513  0.730759
H    -4.894535  1.076874  -0.597231
N    -1.664251  -3.366658  0.819183
C    -2.608831  -3.577149  -0.284685
H    -1.001955  -4.138532  0.943453
H    -2.035809  -3.980505  -1.127602
H    -3.094145  -2.651609  -0.585312
H    -3.363333  -4.317871  0.010553
Cd    1.022925  -1.409770  3.214571
