32
Energy: -170820.339667 eV PBE+vdW (tier 2 basis)
C    0.719770  -1.362520  0.430090
C    0.353102  -0.736834  1.721576
O    1.209048  -0.003824  2.336402
H    1.059228  -0.605850  -0.290027
H    -0.079047  -1.982114  0.013070
H    1.595433  -2.006756  0.623237
N    -0.858449  -0.926984  2.307661
C    -2.199522  -0.845943  1.717963
C    -2.489981  0.644482  1.431560
O    -1.969568  1.597271  2.146018
H    -0.854016  -0.870023  3.330265
H    -2.219122  -1.418001  0.781699
C    -3.206161  -1.489272  2.737488
C    -4.548984  -1.898543  2.107564
C    -3.411088  -0.629745  3.990959
C    -4.465386  -3.024266  1.076885
H    -2.692810  -2.422722  3.028344
H    -5.067425  -1.014668  1.704419
H    -5.187715  -2.234028  2.937322
H    -3.985607  0.282833  3.781393
H    -3.970836  -1.203931  4.738667
H    -2.475198  -0.329010  4.494738
H    -3.841091  -2.785458  0.201182
H    -5.462433  -3.266648  0.690497
H    -4.057432  -3.940982  1.522895
N    -3.319566  1.027099  0.482317
C    -4.066543  0.256676  -0.515921
H    -3.446026  2.041792  0.435793
H    -3.854307  0.682839  -1.503901
H    -5.142299  0.337359  -0.319430
H    -3.778265  -0.795462  -0.504555
Cd    -0.065989  1.583522  3.076549
