32
Energy: -170821.107786 eV PBE+vdW (tier 2 basis)
C    -0.799452  -1.857361  0.116683
C    -0.711974  -1.035272  1.358902
O    0.079588  -0.025926  1.326782
H    0.206873  -2.169361  -0.190863
H    -1.198319  -1.224559  -0.690580
H    -1.444781  -2.734674  0.233759
N    -1.460588  -1.381991  2.414511
C    -1.818554  -0.563498  3.588642
C    -0.801378  -0.777632  4.735844
O    0.258570  -0.046640  4.825434
H    -2.054088  -2.198701  2.269089
H    -1.716097  0.499522  3.294359
C    -3.305403  -0.742661  3.987568
C    -4.259598  -0.631410  2.766394
C    -3.661353  0.291472  5.065950
C    -4.638912  -1.950095  2.086615
H    -3.433486  -1.760816  4.404017
H    -3.849766  0.085492  2.035581
H    -5.184623  -0.165385  3.130950
H    -3.663680  1.307603  4.646107
H    -2.983704  0.282810  5.930673
H    -4.670559  0.096192  5.446582
H    -3.805481  -2.462411  1.577940
H    -5.393650  -1.773912  1.310613
H    -5.071121  -2.660000  2.804387
N    -1.013471  -1.714096  5.630714
C    -0.131556  -2.034013  6.759499
H    -1.903959  -2.207285  5.578623
H    -0.443483  -1.468920  7.647783
H    0.899478  -1.774000  6.507308
H    -0.210239  -3.105542  6.967173
Cd    0.795764  0.959076  3.047959
