32
Energy: -170821.013074 eV PBE+vdW (tier 2 basis)
C    0.901832  0.661303  0.602997
C    0.704256  0.354947  2.054496
O    1.681774  -0.191798  2.660593
H    0.024192  1.110477  0.126550
H    1.161569  -0.269503  0.079866
H    1.762356  1.335991  0.496511
N    -0.483327  0.676142  2.598068
C    -1.131117  0.455087  3.926902
C    -0.487145  1.314936  5.027018
O    0.648762  1.043761  5.560080
H    -1.113364  1.109077  1.927706
H    -2.124766  0.885532  3.762611
C    -1.462322  -1.038476  4.275747
C    -2.653493  -1.126602  5.265597
C    -0.331084  -1.990954  4.708057
C    -2.379037  -0.810651  6.737326
H    -1.830181  -1.430169  3.313815
H    -3.046404  -2.151124  5.190028
H    -3.463909  -0.485455  4.884429
H    0.407484  -2.185554  3.904431
H    -0.733386  -2.996845  4.906995
H    0.106334  -1.728666  5.698978
H    -3.304144  -0.926905  7.314437
H    -2.027229  0.214928  6.910799
H    -1.649623  -1.496627  7.188725
N    -1.120959  2.388612  5.467076
C    -2.443183  2.911099  5.096317
H    -0.621526  2.889670  6.204682
H    -2.577619  3.866430  5.611189
H    -3.240994  2.230643  5.419362
H    -2.509916  3.098870  4.018477
Cd    1.837705  -0.510469  4.748731
