32
Energy: -170820.977661 eV PBE+vdW (tier 2 basis)
C    0.720310  0.661802  -0.019072
C    0.165849  0.102110  1.247887
O    0.441158  0.731676  2.328457
H    1.806100  0.789150  0.080776
H    0.294184  1.664260  -0.174060
H    0.497045  0.038896  -0.892172
N    -0.588242  -1.006404  1.189437
C    -1.437253  -1.558999  2.253609
C    -0.626914  -2.466397  3.211625
O    -0.288976  -2.002610  4.372175
H    -0.746877  -1.377351  0.254183
H    -1.757411  -0.709890  2.890306
C    -2.768699  -2.137999  1.704050
C    -3.574439  -1.008699  1.019936
C    -3.554941  -2.802887  2.840503
C    -4.835777  -1.496660  0.304551
H    -2.528075  -2.895413  0.939368
H    -2.939976  -0.485579  0.286516
H    -3.843829  -0.257963  1.782840
H    -3.003733  -3.609178  3.342261
H    -4.474483  -3.248933  2.447522
H    -3.852506  -2.069089  3.603723
H    -5.311696  -0.661800  -0.223220
H    -5.579647  -1.903522  0.999380
H    -4.605392  -2.269159  -0.441762
N    -0.256220  -3.698219  2.929541
C    -0.541822  -4.535162  1.759513
H    0.267201  -4.149750  3.683601
H    0.236321  -5.302822  1.706488
H    -0.510707  -3.949501  0.837065
H    -1.516923  -5.028428  1.860921
Cd    0.090332  0.079921  4.314406
