32
Energy: -170820.454473 eV PBE+vdW (tier 2 basis)
C    -1.062060  1.315290  -0.070656
C    -0.635706  0.769993  1.238846
O    0.137502  1.466217  1.991905
H    -1.580631  2.275902  0.054697
H    -1.662869  0.610335  -0.651881
H    -0.142823  1.545121  -0.637040
N    -1.011793  -0.462068  1.673317
C    -2.344400  -1.072729  1.674624
C    -3.126301  -0.463660  2.866511
O    -2.553378  0.026931  3.917818
H    -0.331285  -0.936846  2.273279
H    -2.864991  -0.800683  0.744005
C    -2.193348  -2.626548  1.739224
C    -1.479699  -3.108768  0.454465
C    -3.523768  -3.350998  1.961696
C    -0.979047  -4.552273  0.527710
H    -1.541516  -2.839848  2.609011
H    -0.622468  -2.452575  0.235458
H    -2.176253  -2.993579  -0.392858
H    -3.976658  -3.141840  2.938609
H    -3.356624  -4.433005  1.928968
H    -4.250322  -3.126143  1.165140
H    -0.431065  -4.803652  -0.388102
H    -1.796882  -5.276704  0.620594
H    -0.293686  -4.702517  1.373273
N    -4.441248  -0.493668  2.821950
C    -5.350298  -0.034112  3.877016
H    -4.865596  -0.972060  2.027905
H    -6.268482  0.331359  3.407032
H    -4.876569  0.766336  4.450562
H    -5.595052  -0.866257  4.550687
Cd    -0.679183  1.033235  3.947480
