15
Energy:  -38233.9901590  eV PBE+vdW (tier 2 basis)
N    -0.361461  0.324284  0.388354
C    0.241639  0.035797  1.735776
C    1.753433  0.261345  1.654954
O    2.489904  -0.099562  2.628276
H    -0.435348  -0.630135  -0.079817
H    -1.298421  0.743261  0.449488
H    -0.135564  0.778989  2.456218
C    -0.173175  -1.382869  2.201471
S    -0.209512  -2.612913  0.855710
H    -1.200871  -1.353150  2.586317
H    0.472219  -1.701794  3.026729
H    1.129699  -2.794873  0.747640
O    2.255026  0.858855  0.636796
H    0.255776  0.935509  -0.169151
Ca    4.238656  0.820255  1.667236
