15
Energy:  -38233.6359627  eV PBE+vdW (tier 2 basis)
N    -0.029767  -0.039313  -0.014562
C    0.006146  -0.009764  1.517932
C    1.475248  0.128704  1.930263
O    1.830197  -0.070349  3.134316
H    0.764553  0.505339  -0.393683
H    0.054507  -1.002262  -0.372843
H    -0.497384  0.922805  1.818633
C    -0.759287  -1.206260  2.117270
S    -1.372014  -0.913503  3.803427
H    -0.167931  -2.129969  2.058913
H    -1.672130  -1.362635  1.523115
H    -0.206353  -1.170846  4.438222
O    2.337674  0.488655  1.046821
H    -0.912618  0.349090  -0.375012
Ca    3.883157  0.551307  2.666192
