15
Energy:  -38233.8725489  eV PBE+vdW (tier 2 basis)
N    -0.091604  -0.127423  -0.139883
C    -0.064758  0.131118  1.356173
C    1.384250  0.123640  1.843145
O    2.131593  -0.828387  1.442778
H    -1.024755  -0.414574  -0.473506
H    0.177135  0.715116  -0.672273
H    -0.540929  1.099992  1.542952
C    -0.782328  -1.032865  2.087834
S    -0.230825  -1.203319  3.852327
H    -0.554820  -1.981888  1.586164
H    -1.866783  -0.869076  2.099076
H    -0.577005  -2.510152  3.959209
O    1.685724  0.882053  2.809780
H    0.588676  -0.874262  -0.370085
Ca    2.802425  -0.854971  3.610308
