15
Energy:  -38233.5385928  eV PBE+vdW (tier 2 basis)
N    2.521630  -6.119683  0.418714
C    2.756040  -7.313774  1.243607
C    4.261442  -7.618037  1.048334
O    4.825008  -8.634795  1.544721
H    1.978972  -6.293281  -0.429979
H    2.092102  -5.345967  0.927046
H    2.624756  -7.050950  2.305163
C    1.825136  -8.489320  0.886600
S    1.921521  -10.043325  1.877095
H    1.982494  -8.827749  -0.147779
H    0.779791  -8.166406  0.970407
H    1.485228  -9.557563  3.068238
O    4.884268  -6.753002  0.356637
H    4.068703  -6.086460  0.123693
Ca    4.679909  -10.515686  2.401504
