15
Energy:  -38232.9104821  eV PBE+vdW (tier 2 basis)
N    -0.390921  -0.583179  -0.317926
C    0.064637  -0.240487  0.987871
C    1.588510  -0.375482  1.113463
O    2.325000  -0.388616  0.075916
H    -0.311956  -1.558975  -0.592353
H    -1.281312  -0.180928  -0.595623
H    -0.117417  0.839994  1.140587
C    -0.710403  -1.019370  2.088571
S    -0.370550  -0.452259  3.848805
H    -0.547070  -2.102821  2.047307
H    -1.781915  -0.810379  1.975581
H    -1.388933  -1.108711  4.479196
O    2.130111  -0.415044  2.286970
H    0.563938  -1.363380  4.222994
Ca    4.120568  -0.304630  1.267869
