15
Energy:  -38233.5279839  eV PBE+vdW (tier 2 basis)
N    2.563720  -6.162303  0.322825
C    2.795631  -7.318984  1.194839
C    4.315750  -7.583231  1.085940
O    4.869807  -8.593867  1.604769
H    2.106786  -6.387564  -0.563245
H    2.047574  -5.405943  0.773229
H    2.608303  -7.019602  2.239830
C    1.937425  -8.551883  0.852615
S    2.051738  -9.865592  2.157441
H    2.204694  -8.976014  -0.123341
H    0.880752  -8.258236  0.840936
H    1.357726  -10.837466  1.512473
O    4.958812  -6.698720  0.437286
H    4.148951  -6.058515  0.145931
Ca    4.783457  -10.540257  2.327781
