15
Energy:  -38233.8893397  eV PBE+vdW (tier 2 basis)
N    -0.074471  0.309701  0.395058
C    -0.184495  -0.583525  1.584493
C    1.233324  -0.792517  2.125813
O    2.188962  -0.797732  1.330029
H    -0.990033  0.358252  -0.067683
H    0.101449  1.271502  0.711817
H    -0.838148  -0.151683  2.361183
C    -0.798735  -1.942288  1.166792
S    0.020910  -2.801498  -0.246262
H    -1.831751  -1.776574  0.830477
H    -0.848863  -2.642412  2.009116
H    0.907298  -3.543813  0.466996
O    1.461334  -1.036782  3.386152
H    0.677161  -0.962974  3.968291
Ca    1.840057  -0.667438  -0.839788
