15
Energy:  -38233.6461825  eV PBE+vdW (tier 2 basis)
N    -0.102758  -0.469670  0.009528
C    0.050203  -0.003979  1.462966
C    1.556861  0.077260  1.746575
O    2.370714  0.129632  0.751875
H    -0.973108  -0.114147  -0.409784
H    0.706078  -0.138125  -0.545600
H    -0.335235  1.026793  1.491724
C    -0.763786  -0.887079  2.427808
S    -1.011392  -0.114319  4.059412
H    -0.251885  -1.844535  2.596730
H    -1.742322  -1.110711  1.982514
H    -2.177712  0.499054  3.747845
O    1.988985  0.122566  2.939242
H    -0.126087  -1.498236  -0.054439
Ca    4.039444  0.401497  2.230605
