24
Energy: -605685.046413 eV PBE+vdW (tier 2 basis)
C    -0.052492  -1.324791  0.445613
C    -0.168357  -1.087470  1.908003
O    0.656145  -1.719960  2.697507
H    0.966817  -1.089879  0.109679
H    -0.775713  -0.739913  -0.131131
H    -0.212067  -2.395754  0.249506
N    -1.094141  -0.284808  2.377482
C    -1.512053  -0.032369  3.750956
C    -2.983352  0.532905  3.534386
O    -3.263971  0.888462  2.389992
H    -1.801190  0.169916  1.747101
H    -1.538557  -0.970465  4.327352
C    -0.691041  1.031734  4.466808
O    0.626543  0.498631  4.908917
H    -1.206729  1.368868  5.373767
H    -0.501802  1.887129  3.805826
H    1.025092  1.156515  5.511192
N    -3.815462  0.605309  4.579903
C    -3.637161  0.154681  5.956808
H    -4.721461  1.009430  4.341197
H    -3.380546  0.988302  6.625538
H    -2.866559  -0.621326  6.024228
H    -4.575127  -0.289037  6.308218
Pb    1.841091  -1.506939  4.474468
