24
Energy: -605685.135541 eV PBE+vdW (tier 2 basis)
C    -0.370706  1.381906  -0.285118
C    -0.879968  0.431121  0.751753
O    -0.528998  0.481366  1.940250
H    -0.546758  2.408990  0.059456
H    -0.813649  1.245155  -1.277119
H    0.719104  1.258407  -0.358921
N    -1.789266  -0.518186  0.332140
C    -2.253782  -1.673674  1.090793
C    -2.958314  -1.418881  2.432656
O    -3.861915  -2.296278  2.801265
H    -2.091260  -0.478901  -0.636745
H    -3.026332  -2.142317  0.462654
C    -1.102015  -2.689243  1.259826
O    -1.628703  -3.956134  1.821851
H    -0.324260  -2.310554  1.934929
H    -0.677489  -2.912131  0.273453
H    -0.925712  -4.631987  1.775558
N    -2.648570  -0.399949  3.172642
C    -3.250703  -0.039696  4.453345
H    -1.791188  0.130162  2.809196
H    -4.152010  -0.628500  4.638464
H    -3.499930  1.027686  4.427217
H    -2.518966  -0.201069  5.256185
Pb    -3.775610  -4.455296  2.745268
