24
Energy: -605684.61572 eV PBE+vdW (tier 2 basis)
C    0.072664  0.455200  0.075532
C    -0.153171  0.123589  1.506250
O    0.850086  0.175881  2.317689
H    -0.847941  0.435148  -0.517021
H    0.785956  -0.270110  -0.345115
H    0.541976  1.444992  -0.005149
N    -1.359469  -0.240531  1.929899
C    -1.672604  -0.823833  3.238973
C    -2.711236  -2.006500  3.118989
O    -2.326087  -3.085203  3.536559
H    -2.079262  -0.316057  1.211936
H    -0.785003  -1.388885  3.568100
C    -2.048719  0.164469  4.331851
O    -0.819193  0.785017  4.896069
H    -2.543351  -0.370776  5.152929
H    -2.687283  0.978540  3.969518
H    -1.064523  1.280227  5.702103
N    -3.906675  -1.783727  2.521434
C    -4.641876  -0.535031  2.318245
H    -4.462912  -2.637631  2.460169
H    -3.971243  0.310356  2.118800
H    -5.264850  -0.283980  3.188375
H    -5.295258  -0.645188  1.446097
Pb    1.474972  0.388035  4.391769
