24
Energy: -605685.17284 eV PBE+vdW (tier 2 basis)
C    -0.149559  0.348369  -0.161957
C    -1.171291  -0.131781  0.820263
O    -2.281243  0.376016  0.989862
H    0.308821  1.268520  0.229264
H    -0.650417  0.615459  -1.099528
H    0.645001  -0.380252  -0.357122
N    -0.852850  -1.244223  1.593607
C    -1.784257  -1.608491  2.644902
C    -3.198998  -1.722663  2.052168
O    -4.258076  -1.280259  2.657186
H    0.068859  -1.671009  1.561128
H    -1.512451  -2.607782  3.021281
C    -1.645071  -0.586575  3.788778
O    -2.561520  -0.881298  4.914934
H    -1.849877  0.427499  3.427219
H    -0.622095  -0.633715  4.177172
H    -2.086471  -0.815848  5.763782
N    -3.355661  -2.435739  0.960379
C    -4.630419  -2.667150  0.274674
H    -2.503635  -2.748873  0.497131
H    -4.987209  -1.733551  -0.179435
H    -5.378637  -3.041463  0.980837
H    -4.467139  -3.413134  -0.507042
Pb    -4.863807  -0.460059  4.558519
