24
Energy: -605685.667844 eV PBE+vdW (tier 2 basis)
C    -0.054716  1.271752  0.256897
C    -0.304523  0.300580  1.360415
O    0.514528  -0.664753  1.520018
H    -0.801632  2.069888  0.196246
H    -0.036767  0.720919  -0.694875
H    0.943584  1.712852  0.383788
N    -1.390517  0.476461  2.126383
C    -1.962235  -0.360144  3.196947
C    -1.123241  -0.331461  4.483268
O    0.033790  -0.887837  4.528260
H    -1.951675  1.288736  1.880975
H    -2.932421  0.095145  3.423254
C    -2.279652  -1.814487  2.792102
O    -2.821041  -2.393415  3.951719
H    -1.369856  -2.360089  2.445405
H    -2.970052  -1.800743  1.933933
H    -3.369586  -3.164420  3.729916
N    -1.588443  0.247218  5.568500
C    -2.895074  0.886958  5.788279
H    -0.965157  0.189051  6.376587
H    -2.901903  1.283512  6.807014
H    -3.703984  0.152974  5.692541
H    -3.046281  1.724603  5.097385
Pb    1.307853  -2.028301  3.102042
