24
Energy: -111563.4444445  eV PBE+vdW (tier 2 basis)
C    0.045792  -0.047741  0.014915
C    -0.020540  -0.150695  1.504340
O    0.978038  -0.579726  2.159787
H    -0.863842  0.358314  -0.438954
H    0.234868  -1.049378  -0.397054
H    0.901838  0.578196  -0.269962
N    -1.158881  0.219614  2.109410
C    -1.566006  0.063925  3.519583
C    -0.778661  0.966818  4.479528
O    0.447470  0.734780  4.736734
H    -1.905961  0.511155  1.484973
H    -2.612776  0.385268  3.530059
C    -1.561003  -1.403096  4.015659
S    -2.716347  -2.477994  3.116020
H    -1.908125  -1.412512  5.058102
H    -0.553727  -1.839201  4.007545
H    -1.943585  -2.666585  2.020960
N    -1.405825  1.952724  5.102663
C    -2.800905  2.397062  4.970142
H    -0.828617  2.456858  5.776826
H    -3.051492  2.610451  3.924963
H    -2.909869  3.324326  5.539269
H    -3.495218  1.655988  5.384980
Sr    2.287065  -0.391512  4.000386
