24
Energy: -111563.3134871  eV PBE+vdW (tier 2 basis)
C    0.599426  1.434700  1.748161
C    0.033426  0.066894  1.974021
O    0.815348  -0.897506  2.261900
H    1.034351  1.782948  2.696800
H    -0.143744  2.165382  1.413480
H    1.420467  1.388340  1.022027
N    -1.287811  -0.070738  1.850629
C    -2.263858  -1.095581  2.223712
C    -1.857496  -2.560243  2.131162
O    -0.935964  -2.976018  1.357469
H    -1.814421  0.789993  1.618931
H    -2.556358  -0.894041  3.267048
C    -3.531001  -0.892209  1.322498
S    -4.092972  0.849456  1.293889
H    -4.350522  -1.501447  1.716677
H    -3.320580  -1.224887  0.300185
H    -3.848351  1.070616  -0.018045
N    -2.552014  -3.441684  2.846705
C    -3.654729  -3.247370  3.794340
H    -2.311342  -4.411855  2.643478
H    -3.592265  -2.270585  4.282857
H    -3.583082  -4.020583  4.566025
H    -4.624889  -3.344553  3.290361
Sr    1.351377  -2.886030  1.347693
