24
Energy: -111563.9675065  eV PBE+vdW (tier 2 basis)
C    -0.010869  1.138952  2.282494
C    -0.223560  -0.294310  1.919798
O    0.683549  -1.151375  2.096112
H    0.839752  1.528165  1.706062
H    0.269876  1.199206  3.342914
H    -0.884392  1.774137  2.104010
N    -1.418904  -0.642631  1.397391
C    -1.854308  -1.987454  0.979743
C    -1.606748  -3.052275  2.071526
O    -0.589645  -3.802719  2.037721
H    -2.090106  0.108356  1.260775
H    -2.946297  -1.901180  0.884886
C    -1.402506  -2.427257  -0.426875
S    0.394218  -2.260985  -0.831067
H    -1.927131  -1.809322  -1.165303
H    -1.698580  -3.471942  -0.577977
H    0.409931  -3.184116  -1.822081
N    -2.514790  -3.186132  3.030676
C    -3.764719  -2.441644  3.222829
H    -2.311247  -3.928900  3.699809
H    -4.215662  -2.778706  4.160147
H    -4.478557  -2.643762  2.413486
H    -3.577888  -1.364629  3.305728
Sr    1.633583  -3.233481  1.708195
