24
Energy: -111564.0678539  eV PBE+vdW (tier 2 basis)
C    -0.586624  0.873840  -0.535995
C    -1.139080  0.313950  0.735306
O    -0.387480  -0.269742  1.562509
H    0.228941  1.570128  -0.300452
H    -1.330456  1.385169  -1.155417
H    -0.143818  0.050834  -1.114975
N    -2.461936  0.445849  0.953448
C    -3.296047  -0.085039  2.049602
C    -3.069387  0.672208  3.374276
O    -1.956734  0.627548  3.967256
H    -2.975929  0.939508  0.228986
H    -4.317319  0.144847  1.714992
C    -3.302053  -1.635357  2.169372
S    -2.120415  -2.575700  3.218593
H    -3.160920  -2.053558  1.164845
H    -4.295170  -1.954962  2.505254
H    -2.818702  -2.526374  4.378942
N    -4.104609  1.351807  3.853498
C    -4.104913  2.124265  5.097066
H    -4.963849  1.362616  3.309569
H    -3.175471  1.935330  5.638118
H    -4.961276  1.823306  5.711177
H    -4.185631  3.194419  4.869030
Sr    0.035883  -0.569895  3.796000
