24
Energy: -111562.7687632  eV PBE+vdW (tier 2 basis)
C    1.193527  0.710720  1.221547
C    0.179580  -0.333643  1.580950
O    0.421439  -1.371810  2.171642
H    1.422420  1.299335  2.122142
H    0.857979  1.394856  0.433585
H    2.122855  0.217902  0.916149
N    -1.154982  -0.069034  1.175458
C    -2.176056  -0.939382  1.710267
C    -2.919976  -1.716348  0.628565
O    -3.955323  -2.408857  0.945465
H    -1.396680  0.882227  0.906843
H    -1.563639  -1.700061  2.254503
C    -3.109929  -0.223245  2.708880
S    -3.716529  -1.384826  4.020898
H    -3.960830  0.268027  2.222728
H    -2.522298  0.526423  3.249884
H    -4.547906  -0.534835  4.674886
N    -2.432148  -1.690958  -0.589573
C    -2.919342  -2.430108  -1.750074
H    -1.599048  -1.104826  -0.690952
H    -2.166519  -3.165631  -2.059950
H    -3.096371  -1.732866  -2.577078
H    -3.850661  -2.941239  -1.496809
Sr    -5.374586  -3.246880  2.430279
