24
Energy: -111563.4122033  eV PBE+vdW (tier 2 basis)
C    -0.163112  -0.568922  0.285434
C    -0.243656  0.059161  1.635731
O    0.806856  0.310822  2.303246
H    0.398447  -1.510189  0.351839
H    0.408463  0.096604  -0.377513
H    -1.142652  -0.762502  -0.163515
N    -1.450691  0.368151  2.138874
C    -1.642752  1.137317  3.380336
C    -1.375910  0.252756  4.622547
O    -0.214463  0.319520  5.143494
H    -2.266019  0.178451  1.560369
H    -0.829507  1.875333  3.418061
C    -2.945179  1.950835  3.368499
S    -3.061629  3.039843  4.826269
H    -3.848538  1.340836  3.265825
H    -2.913905  2.625960  2.502390
H    -3.621554  2.139609  5.667375
N    -2.266915  -0.586329  5.126899
C    -3.625276  -0.910733  4.682119
H    -1.938710  -1.077665  5.959244
H    -4.358692  -0.197960  5.080536
H    -3.873145  -1.906172  5.062842
H    -3.687416  -0.944621  3.590655
Sr    1.899954  0.577895  4.294443
