24
Energy: -111563.4755775  eV PBE+vdW (tier 2 basis)
C    -0.775881  -2.206877  0.276953
C    -0.723265  -1.505817  1.594512
O    -0.410760  -2.144205  2.646419
H    -1.607641  -2.926792  0.306390
H    0.143887  -2.785545  0.127029
H    -0.926957  -1.533139  -0.572575
N    -1.022102  -0.198487  1.621311
C    -1.291561  0.679114  2.776067
C    -0.032197  1.002225  3.593766
O    0.543778  0.101693  4.285961
H    -1.304849  0.190457  0.726202
H    -1.649321  1.610049  2.323601
C    -2.423603  0.169278  3.706583
S    -3.957704  -0.265636  2.833779
H    -2.617896  0.923833  4.479301
H    -2.120014  -0.748843  4.225184
H    -4.448488  0.992627  2.739388
N    0.416098  2.247884  3.632988
C    -0.079546  3.436808  2.925429
H    1.213291  2.386808  4.254976
H    -0.137366  3.259996  1.845503
H    0.634275  4.247309  3.096348
H    -1.055683  3.752617  3.313728
Sr    0.727507  -2.152359  4.599159
