24
Energy: -111563.7563630  eV PBE+vdW (tier 2 basis)
C    0.082360  0.315440  -0.108630
C    -0.008365  0.256401  1.380013
O    1.020322  0.449424  2.102007
H    0.862771  -0.372296  -0.459181
H    0.397579  1.328746  -0.397352
H    -0.861548  0.080355  -0.610763
N    -1.199965  0.009280  1.937334
C    -1.522565  0.081753  3.371269
C    -1.023986  -1.172166  4.134951
O    0.209994  -1.227856  4.451178
H    -1.997315  -0.144934  1.316396
H    -0.936074  0.911720  3.796171
C    -3.003582  0.444770  3.545281
S    -4.084838  -0.750888  2.650615
H    -3.166772  1.451329  3.141097
H    -3.250520  0.459188  4.613735
H    -5.255569  -0.144268  2.954519
N    -1.879654  -2.121771  4.450028
C    -1.557287  -3.343163  5.187706
H    -2.849202  -2.004683  4.117614
H    -0.621295  -3.207999  5.734713
H    -1.461287  -4.188206  4.493454
H    -2.369756  -3.553583  5.891009
Sr    2.218555  -0.298593  3.878837
