24
Energy: -111563.4891833  eV PBE+vdW (tier 2 basis)
C    0.126292  -1.037020  0.669780
C    -0.365395  0.000078  1.622598
O    0.427398  0.546323  2.457179
H    0.907371  -0.591656  0.037141
H    -0.664351  -1.442720  0.030839
H    0.598501  -1.855589  1.228969
N    -1.653634  0.351382  1.577966
C    -2.261959  1.441369  2.330965
C    -2.427607  1.061029  3.821773
O    -1.489327  1.420459  4.610771
H    -2.292250  -0.068260  0.881321
H    -1.532113  2.263140  2.372708
C    -3.516715  2.001965  1.582333
S    -4.355668  0.866604  0.417624
H    -3.212105  2.888117  1.018238
H    -4.263939  2.339645  2.308680
H    -3.797990  1.358066  -0.713498
N    -3.458605  0.388655  4.305874
C    -4.620959  -0.194526  3.630043
H    -3.419379  0.258734  5.317824
H    -4.965027  -1.044460  4.227436
H    -4.354110  -0.563860  2.635056
H    -5.441145  0.530974  3.554783
Sr    0.803013  1.476985  4.492628
