24
Energy: -111563.3840500  eV PBE+vdW (tier 2 basis)
C    -0.094690  1.491185  0.572656
C    -0.204157  0.681569  1.827375
O    0.828945  0.505487  2.553338
H    0.731698  1.117784  -0.044896
H    0.160735  2.523245  0.855002
H    -1.015348  1.506718  -0.019221
N    -1.401800  0.173700  2.119542
C    -2.009869  -0.464036  3.288009
C    -1.115198  -1.195498  4.285439
O    -0.063145  -1.827028  3.960569
H    -2.156137  0.358480  1.436396
H    -2.534304  0.333878  3.841399
C    -3.093604  -1.476402  2.777817
S    -4.213188  -0.735299  1.535976
H    -3.703933  -1.792302  3.631774
H    -2.612933  -2.365188  2.354654
H    -3.781193  -1.462208  0.480015
N    -1.579524  -1.220084  5.530096
C    -1.011152  -2.006207  6.625290
H    -2.407373  -0.667220  5.740525
H    -1.823026  -2.325375  7.286363
H    -0.302213  -1.404210  7.209359
H    -0.508558  -2.889460  6.221169
Sr    2.057968  -1.195530  3.366358
