24
Energy: -111563.4010506  eV PBE+vdW (tier 2 basis)
C    0.367855  -1.527036  1.046554
C    -0.284677  -0.405672  1.781920
O    0.405093  0.536358  2.280352
H    1.141167  -1.982390  1.678745
H    0.878987  -1.113608  0.164875
H    -0.334854  -2.300038  0.719073
N    -1.621519  -0.400854  1.902046
C    -2.396399  0.723171  2.439215
C    -2.309376  0.768522  3.984005
O    -1.409414  1.523603  4.485200
H    -2.133251  -1.162179  1.462318
H    -1.872917  1.638055  2.125904
C    -3.794474  0.801083  1.796717
S    -3.737477  1.417280  0.081286
H    -4.395941  1.534542  2.349672
H    -4.336743  -0.150401  1.836425
H    -3.480692  0.231567  -0.518122
N    -3.106778  0.085716  4.788925
C    -4.169482  -0.878063  4.483514
H    -2.941015  0.268534  5.779711
H    -3.900495  -1.502453  3.626548
H    -5.123564  -0.370303  4.297247
H    -4.286998  -1.532013  5.352908
Sr    0.725961  2.123577  3.883962
