24
Energy: -111564.0049720  eV PBE+vdW (tier 2 basis)
C    -1.183682  -0.427741  0.014944
C    -0.884853  -0.329518  1.476976
O    0.301797  -0.359374  1.896741
H    -2.252866  -0.425672  -0.220375
H    -0.726953  -1.342596  -0.385297
H    -0.702018  0.416142  -0.499065
N    -1.931908  -0.197279  2.320402
C    -1.916272  -0.036049  3.785086
C    -0.911637  1.034541  4.260712
O    0.248528  0.715142  4.650124
H    -2.852073  -0.192470  1.888474
H    -2.915260  0.358957  4.022020
C    -1.848852  -1.349213  4.591514
S    -0.443820  -2.517432  4.429659
H    -2.751177  -1.938165  4.385999
H    -1.869574  -1.104937  5.662321
H    -0.766251  -3.035603  3.219731
N    -1.310406  2.300112  4.291141
C    -2.612310  2.863263  3.914237
H    -0.613238  2.950330  4.654957
H    -3.401847  2.541438  4.605964
H    -2.876840  2.598806  2.883936
H    -2.536442  3.952483  3.973254
Sr    1.799951  -0.674164  3.633547
