24
Energy: -111563.5692136  eV PBE+vdW (tier 2 basis)
C    -2.114128  -0.034160  -0.349900
C    -1.485609  -0.414342  0.948682
O    -0.543919  -1.265945  0.991895
H    -1.342244  0.413442  -0.992819
H    -2.941515  0.674692  -0.242500
H    -2.472213  -0.935739  -0.863929
N    -1.923974  0.168750  2.075084
C    -1.287731  0.028910  3.399174
C    -1.698534  -1.312536  4.047489
O    -1.030366  -2.354656  3.758981
H    -2.678045  0.846729  1.986575
H    -0.205295  -0.058148  3.228406
C    -1.506955  1.288681  4.249134
S    -0.453698  1.324157  5.736519
H    -2.562824  1.464644  4.504675
H    -1.189160  2.158427  3.657517
H    -1.249717  0.576655  6.535376
N    -2.744165  -1.347645  4.852905
C    -3.265425  -2.540086  5.524425
H    -3.226573  -0.470245  5.033210
H    -4.193407  -2.870174  5.040381
H    -3.475926  -2.297176  6.571608
H    -2.519640  -3.336460  5.475454
Sr    0.393062  -3.028773  2.085656
