24
Energy: -111562.9316267  eV PBE+vdW (tier 2 basis)
C    -0.814944  2.019867  -0.288379
C    0.134546  1.430207  0.698335
O    1.355354  1.785730  0.734049
H    -1.132523  3.025861  0.026664
H    -1.700370  1.396289  -0.448449
H    -0.277475  2.147066  -1.237235
N    -0.288576  0.493089  1.579659
C    -1.515928  0.625124  2.354045
C    -1.213563  1.629797  3.514222
O    -0.092246  2.235706  3.568261
H    0.471019  0.020937  2.072745
H    -2.279401  1.089278  1.712778
C    -2.041265  -0.752925  2.808191
S    -2.593171  -1.792137  1.420846
H    -2.934837  -0.630447  3.434284
H    -1.297317  -1.276267  3.425318
H    -1.365955  -2.218264  1.042632
N    -2.152309  1.842750  4.415965
C    -2.032416  2.768902  5.547720
H    -3.030988  1.340279  4.317204
H    -2.917202  2.656286  6.179287
H    -1.975958  3.804521  5.190866
H    -1.138615  2.533035  6.135843
Sr    1.969652  2.848573  2.696686
