24
Energy: -111563.4364686  eV PBE+vdW (tier 2 basis)
C    0.311703  0.856349  0.366357
C    -0.083895  -0.081124  1.456465
O    0.798271  -0.668367  2.164371
H    0.973254  0.338807  -0.341099
H    0.894721  1.679310  0.803903
H    -0.544704  1.271805  -0.173830
N    -1.384202  -0.289833  1.683058
C    -1.926385  -1.035813  2.811939
C    -1.695842  -2.554994  2.642791
O    -0.687942  -3.054746  3.246087
H    -2.102683  0.254014  1.171651
H    -1.308165  -0.799168  3.690168
C    -3.382937  -0.553821  3.157759
S    -4.208034  0.553350  1.964594
H    -3.314002  0.048570  4.070311
H    -4.033570  -1.399733  3.399095
H    -4.867246  -0.385820  1.248263
N    -2.466157  -3.340355  1.907036
C    -3.618981  -3.012480  1.066829
H    -2.193375  -4.323646  1.932820
H    -3.684190  -3.764612  0.274468
H    -3.489957  -2.033305  0.596389
H    -4.551832  -3.038383  1.644860
Sr    1.502145  -2.387003  3.466713
