24
Energy: -111563.6020024  eV PBE+vdW (tier 2 basis)
C    -0.069271  0.106348  -0.127477
C    -0.055432  0.087252  1.366540
O    1.039841  -0.049247  1.992745
H    -1.059376  0.290328  -0.556771
H    0.301177  -0.863440  -0.490580
H    0.630955  0.869935  -0.490324
N    -1.228124  0.213623  2.008980
C    -1.526432  0.062014  3.453341
C    -0.934501  1.204133  4.305848
O    0.316410  1.282369  4.512030
H    -2.042022  0.317453  1.408554
H    -2.619904  0.140745  3.513740
C    -1.142535  -1.326807  4.002226
S    -1.424804  -1.480108  5.795408
H    -0.077194  -1.537167  3.844965
H    -1.690468  -2.101372  3.452743
H    -2.754641  -1.724425  5.729988
N    -1.783166  2.087715  4.800776
C    -1.437604  3.212120  5.669736
H    -2.773241  1.938641  4.621794
H    -1.835504  3.033693  6.676713
H    -1.878147  4.131222  5.266867
H    -0.351791  3.311981  5.718939
Sr    2.331774  0.534992  3.764220
