24
Energy: -111562.8390592  eV PBE+vdW (tier 2 basis)
C    0.300778  0.457584  0.207472
C    0.025510  0.095734  1.626870
O    0.971896  -0.056236  2.459129
H    0.753564  1.457605  0.141849
H    -0.582345  0.407494  -0.435157
H    1.057746  -0.244959  -0.171214
N    -1.250335  -0.072262  2.056375
C    -2.326787  0.891407  1.778547
C    -1.827336  2.284354  2.230573
O    -0.952289  2.342718  3.168609
H    -1.312132  -0.494636  2.984340
H    -2.561435  0.892327  0.707263
C    -3.570870  0.419666  2.580637
S    -5.073617  1.426046  2.457581
H    -3.321351  0.412103  3.652680
H    -3.783695  -0.616080  2.286222
H    -5.502145  0.920818  1.276588
N    -2.267333  3.397624  1.677401
C    -3.180772  3.615489  0.551570
H    -1.899796  4.247203  2.109981
H    -2.705961  4.315857  -0.145939
H    -4.121987  4.041294  0.915985
H    -3.399765  2.679437  0.035005
Sr    0.969448  1.538100  4.154947
