24
Energy: -111562.7689802  eV PBE+vdW (tier 2 basis)
C    0.962835  0.918329  0.471563
C    0.251694  -0.198696  1.156938
O    0.727438  -1.395789  1.101831
H    0.467814  1.883816  0.613192
H    1.018080  0.698526  -0.604160
H    1.994918  0.982833  0.841562
N    -0.862165  0.051653  1.811990
C    -1.781299  -0.874956  2.459772
C    -3.067450  0.023421  2.642843
O    -2.938249  1.234972  2.467817
H    -1.287662  1.006078  1.840745
H    -2.003168  -1.718408  1.790221
C    -1.293702  -1.370671  3.838173
S    -0.386415  -2.973984  3.952071
H    -2.128570  -1.488088  4.538127
H    -0.609193  -0.639533  4.286502
H    -1.422798  -3.813820  3.710041
N    -4.222995  -0.567207  2.987140
C    -4.523076  -1.982018  3.168199
H    -4.989511  0.091835  3.116921
H    -3.871955  -2.607085  2.545114
H    -5.552644  -2.169302  2.845182
H    -4.435157  -2.291984  4.219888
Sr    1.447448  -3.396463  1.606003
