24
Energy: -111563.5813434  eV PBE+vdW (tier 2 basis)
C    -0.037851  0.508441  0.131237
C    -0.005445  0.437354  1.623517
O    1.071893  0.657940  2.258429
H    0.158383  1.550096  -0.164527
H    -0.993579  0.195339  -0.301725
H    0.771617  -0.098705  -0.292318
N    -1.146207  0.148242  2.267219
C    -1.428359  0.269004  3.711452
C    -0.920539  -0.981606  4.472684
O    0.307047  -1.307510  4.343323
H    -1.956000  -0.036026  1.678491
H    -0.817547  1.105187  4.091396
C    -2.922174  0.659507  3.808173
S    -3.695136  0.804538  5.453198
H    -3.540710  -0.094886  3.297559
H    -3.051787  1.604660  3.265191
H    -2.846827  1.731179  5.961868
N    -1.745229  -1.648115  5.248483
C    -1.391271  -2.826128  6.039360
H    -2.646938  -1.183823  5.449458
H    -0.572082  -3.365433  5.557558
H    -2.269994  -3.475381  6.106701
H    -1.092021  -2.529101  7.053547
Sr    2.352757  -0.528771  3.718728
