24
Energy: -111562.9681345  eV PBE+vdW (tier 2 basis)
C    -1.115158  1.261454  -0.237227
C    -0.110207  0.983691  0.832601
O    1.087124  1.389846  0.712409
H    -2.066063  1.610118  0.181352
H    -1.322010  0.351698  -0.823148
H    -0.713269  2.019136  -0.916396
N    -0.444360  0.291600  1.951506
C    -1.218101  -0.957489  1.967328
C    -0.479077  -1.993709  1.060305
O    0.681459  -1.720835  0.595240
H    0.279302  0.335514  2.668241
H    -1.117860  -1.326681  3.001210
C    -2.729283  -0.788827  1.695220
S    -3.638016  -2.211658  2.427820
H    -2.952146  -0.734719  0.624776
H    -3.060895  0.138425  2.177590
H    -4.667411  -2.201763  1.549374
N    -1.074965  -3.141246  0.831937
C    -0.506952  -4.240765  0.050028
H    -2.014724  -3.252946  1.260790
H    -1.241977  -5.048794  0.013463
H    0.410155  -4.612742  0.522807
H    -0.282524  -3.912845  -0.971908
Sr    2.514540  -0.375177  0.234592
