24
Energy: -111563.0149977  eV PBE+vdW (tier 2 basis)
C    0.042721  -0.196433  0.045193
C    -0.005087  0.001342  1.525320
O    1.058299  0.254849  2.172585
H    -0.761357  0.347690  -0.462928
H    -0.062204  -1.263134  -0.209485
H    1.011458  0.148102  -0.328620
N    -1.171022  -0.082810  2.215599
C    -2.171898  -1.151124  2.063150
C    -1.462777  -2.514693  2.346332
O    -0.249452  -2.532497  2.753692
H    -1.076610  0.252763  3.173848
H    -2.872565  -0.991160  2.896431
C    -3.004819  -1.069895  0.759728
S    -4.509514  -2.105988  0.732620
H    -2.435321  -1.410888  -0.112506
H    -3.278826  -0.021331  0.592757
H    -5.182479  -1.451085  1.710835
N    -2.165388  -3.612605  2.189364
C    -1.677549  -4.967765  2.450869
H    -3.133533  -3.478390  1.837583
H    -2.463758  -5.673213  2.169983
H    -1.448693  -5.093317  3.516311
H    -0.779109  -5.176477  1.858236
Sr    1.757494  -1.596599  3.379552
