24
Energy: -111562.7863018  eV PBE+vdW (tier 2 basis)
C    0.286065  -0.355419  0.044595
C    0.141186  -0.572723  1.513079
O    1.049081  -1.221923  2.161628
H    1.238267  0.150070  -0.164837
H    -0.534539  0.233071  -0.376907
H    0.319135  -1.332419  -0.458390
N    -0.917323  -0.098152  2.132328
C    -1.319720  -0.247046  3.524745
C    -2.768356  0.379832  3.510198
O    -3.109307  0.984542  2.492566
H    -1.662557  0.446599  1.638218
H    -1.392702  -1.316135  3.779280
C    -0.399416  0.496045  4.520785
S    0.684481  -0.691908  5.437190
H    -0.985002  0.998596  5.298321
H    0.205093  1.247933  4.003943
H    1.282609  0.179762  6.286698
N    -3.547040  0.227870  4.591415
C    -3.299882  -0.520011  5.819157
H    -4.452119  0.687976  4.502260
H    -4.231147  -1.003759  6.133134
H    -2.961109  0.134187  6.635179
H    -2.559629  -1.312180  5.660166
Sr    2.657130  -1.838432  3.513871
