16
Energy: -567335.9595216  eV PBE+vdW (tier 2 basis)
N    -0.129695  0.155473  -0.332696
C    0.049307  -0.077434  1.123976
C    1.190404  -1.062815  1.417663
O    1.374276  -1.541411  2.503983
H    -0.665338  1.006727  -0.520965
H    0.775077  0.215015  -0.807399
H    0.374369  0.878561  1.572112
C    -1.242913  -0.473709  1.882893
C    -1.706093  -1.931942  1.872108
O    -1.787728  -2.693049  0.777983
O    -2.079696  -2.485910  2.888176
H    -2.081960  0.151774  1.537354
H    -1.091561  -0.227849  2.939487
O    1.952974  -1.286390  0.314146
H    2.692187  -1.874281  0.573759
Hg    -1.250609  -1.801761  -1.085581
