16
Energy: -567335.7046545  eV PBE+vdW (tier 2 basis)
N    -0.299124  0.746256  0.465797
C    0.164132  -0.253312  1.491697
C    1.702397  -0.425494  1.091635
O    2.006151  0.186035  0.044800
H    0.645154  0.773656  -0.133993
H    -0.494784  1.669365  0.862912
H    0.119701  0.200054  2.488801
C    -0.739872  -1.510392  1.466118
C    0.016542  -2.510116  2.339486
O    0.658562  -3.415862  1.741993
O    0.163194  -2.154487  3.552511
H    -0.849225  -1.913601  0.452507
H    -1.720723  -1.277909  1.897770
O    2.571185  -1.031142  1.802184
H    -1.109196  0.439050  -0.079770
Hg    2.395905  -2.814100  3.265555
