16
Energy: -567335.8364030  eV PBE+vdW (tier 2 basis)
N    0.158554  -0.926715  -0.211628
C    -0.128023  -0.186447  1.004894
C    1.212989  0.278985  1.690149
O    2.263851  -0.287355  1.545267
H    0.953368  -1.563521  -0.095498
H    0.354071  -0.298304  -0.991104
H    -0.718229  0.696625  0.737424
C    -0.885214  -0.955833  2.136842
C    -1.844416  -1.842511  1.303073
O    -2.766909  -1.257118  0.686816
O    -1.385463  -3.001535  1.094369
H    -1.421697  -0.245249  2.772681
H    -0.228633  -1.596984  2.731595
O    0.966609  1.359746  2.440027
H    1.802670  1.639171  2.869202
Hg    -1.969529  -2.612957  -1.164109
