16
Energy: -567335.9728990  eV PBE+vdW (tier 2 basis)
N    -0.019718  0.096199  0.100018
C    0.205454  -0.037078  1.589053
C    1.771367  0.014349  1.764782
O    2.394599  0.574296  0.876685
H    0.875275  0.482309  -0.276372
H    -0.799507  0.717676  -0.138449
H    -0.159099  0.883661  2.066948
C    -0.593971  -1.235987  2.126165
C    -0.206510  -2.536898  1.400385
O    -0.476332  -2.646132  0.207711
O    0.432026  -3.505521  2.052809
H    -1.663565  -1.069842  1.930021
H    -0.498712  -1.283004  3.217452
O    2.326872  -0.416173  2.881685
H    -0.214487  -0.860748  -0.288270
Hg    1.855308  -2.467108  3.238377
