16
Energy: -567335.6467784  eV PBE+vdW (tier 2 basis)
N    0.541592  -0.944842  0.307070
C    0.233727  -0.221935  1.604797
C    1.491309  -0.275236  2.525721
O    1.957396  0.810430  2.846805
H    -0.014014  -0.574299  -0.473071
H    0.248333  -1.967148  0.510543
H    0.098918  0.845283  1.383896
C    -1.101129  -0.784789  2.162615
C    -0.809349  -2.243979  2.510470
O    -0.753362  -2.532317  3.742365
O    -0.378806  -2.982758  1.565443
H    -1.892525  -0.690361  1.405839
H    -1.393504  -0.222597  3.054112
O    2.120580  -1.375007  2.855949
H    1.535030  -0.892085  0.053492
Hg    1.372299  -3.428296  3.433974
