16
Energy: -567335.9926180  eV PBE+vdW (tier 2 basis)
N    -0.770294  0.811634  0.182204
C    -0.468699  0.485109  1.581432
C    0.789022  -0.403718  1.608277
O    1.238467  -0.997244  0.636122
H    -1.689441  1.246363  0.067209
H    -0.050675  1.390842  -0.254122
H    -0.212304  1.401637  2.144438
C    -1.669516  -0.151717  2.335547
C    -2.263192  -1.134024  1.281836
O    -3.161713  -0.708412  0.557785
O    -1.494661  -2.162765  1.100608
H    -2.417954  0.603903  2.592645
H    -1.315851  -0.655825  3.239771
O    1.335286  -0.426279  2.815844
H    2.116633  -1.018421  2.811585
Hg    -0.787104  -1.469086  -0.922179
