16
Energy: -567335.9597576  eV PBE+vdW (tier 2 basis)
N    0.509907  0.000239  0.162513
C    0.162706  0.178487  1.531078
C    1.432445  0.418614  2.398315
O    1.510742  0.014961  3.536465
H    1.069556  -0.823203  -0.059795
H    -0.187584  0.236686  -0.537765
H    -0.459039  1.088688  1.603128
C    -0.687118  -0.945397  2.197393
C    0.150502  -2.221989  2.377629
O    -0.233955  -2.909781  3.376754
O    1.062323  -2.512982  1.571980
H    -1.539019  -1.228457  1.559905
H    -1.080637  -0.612967  3.163959
O    2.409406  1.109653  1.810570
H    2.153535  1.292640  0.880545
Hg    1.411311  -4.483355  3.124194
