16
Energy: -567335.7045860  eV PBE+vdW (tier 2 basis)
N    0.058220  1.134043  0.837230
C    0.299622  -0.146704  1.590305
C    1.528279  -0.764574  0.774580
O    2.219809  -1.766068  1.155380
H    -0.901280  1.243201  0.497172
H    0.793651  0.947265  0.013317
H    0.646749  0.085991  2.603782
C    -1.006149  -0.974334  1.679974
C    -0.533567  -2.328726  2.205907
O    -0.007266  -2.296822  3.364170
O    -0.437589  -3.263529  1.365500
H    -1.475954  -1.102761  0.697768
H    -1.703091  -0.503292  2.383376
O    1.820566  -0.101378  -0.243844
H    0.321417  1.969070  1.367751
Hg    1.675585  -3.627384  2.416633
