21
Energy: -33017.4361001 eV PBE+vdW (tier 2 basis)
N    0.434418  0.514511  -0.057784
C    0.212817  0.030355  1.340507
C    1.521556  0.175105  2.109735
O    2.361472  1.025688  1.733630
H    -0.582997  0.740582  -0.337257
H    0.701961  -0.288613  -0.641349
H    -0.445346  0.790028  1.803703
C    -0.509626  -1.328260  1.461219
C    -1.720506  -1.522758  0.511144
C    -2.633722  -0.309239  0.345557
O    -2.170787  0.791232  -0.034100
N    -3.936073  -0.474332  0.589635
H    -0.865162  -1.431008  2.499312
H    0.194806  -2.153354  1.274808
H    -2.277629  -2.402702  0.855084
H    -1.365218  -1.774525  -0.499823
H    -4.332244  -1.365082  0.867050
H    -4.574260  0.300456  0.425405
O    1.787472  -0.505796  3.186793
H    1.099203  -1.164881  3.412909
Ca    2.110984  2.180502  -0.069470
