21
Energy: -33016.8634813 eV PBE+vdW (tier 2 basis)
N    -0.091535  -0.360148  0.171998
C    -0.160215  -0.292023  1.641933
C    1.140202  -0.816749  2.235148
O    1.362481  -1.999373  2.505393
H    -0.111201  0.566946  -0.249631
H    0.744025  -0.831312  -0.172233
H    -0.231978  0.758994  1.948984
C    -1.427189  -1.017408  2.194310
C    -1.975064  -2.148960  1.302653
C    -1.596294  -3.556478  1.605287
O    -2.457354  -4.513508  1.311108
N    -0.440760  -3.869634  2.115705
H    -2.219628  -0.260426  2.239346
H    -1.268602  -1.344179  3.231007
H    -1.608030  -1.915746  0.273936
H    -3.069692  -2.109773  1.254617
H    0.292035  -3.109134  2.315201
H    -0.198188  -4.843647  2.284080
O    2.049247  0.135722  2.391633
H    2.882467  -0.254868  2.730732
Ca    -3.879678  -5.791877  0.798105
