21
Energy: -33016.9503179 eV PBE+vdW (tier 2 basis)
N    -0.377300  -0.131810  0.248584
C    -0.355915  -0.580215  1.680567
C    1.037826  -0.238205  2.231586
O    1.825652  0.425086  1.595734
H    0.130156  -0.777602  -0.368068
H    0.106282  0.776090  0.171762
H    -1.078414  0.074282  2.190706
C    -0.777715  -2.048965  1.854591
C    -1.944790  -2.578671  0.977464
C    -3.174963  -1.700048  0.818985
O    -4.353852  -2.255134  1.154693
N    -3.051143  -0.519075  0.333778
H    -1.021110  -2.174045  2.917120
H    0.084619  -2.703911  1.665515
H    -2.242743  -3.552524  1.381792
H    -1.578945  -2.782502  -0.041532
H    -1.426343  -0.092374  -0.006241
H    -3.929658  -0.004457  0.228833
O    1.213929  -0.734774  3.458845
H    2.098630  -0.464732  3.784212
Ca    -6.100252  -3.074593  1.500770
