21
Energy: -33019.1722594 eV PBE+vdW (tier 2 basis)
N    0.377175  0.214698  -0.161410
C    0.009134  0.177124  1.311438
C    1.295900  -0.127747  2.077859
O    2.122196  -0.924673  1.517061
H    0.767282  1.127649  -0.436865
H    1.118371  -0.500405  -0.304473
H    -0.400784  1.154279  1.591213
C    -1.010260  -0.964944  1.546040
C    -1.380928  -1.232702  3.030420
C    -0.700846  -2.441998  3.652662
O    0.560503  -2.550100  3.708315
N    -1.474203  -3.392360  4.159358
H    -0.620618  -1.884050  1.082498
H    -1.933700  -0.701250  1.011845
H    -2.468040  -1.348999  3.104371
H    -1.122356  -0.367078  3.659952
H    -2.487504  -3.337055  4.133622
H    -1.058074  -4.202842  4.613571
O    1.399156  0.260881  3.272806
H    -0.421685  0.014929  -0.779755
Ca    2.538973  -1.650615  3.653311
