21
Energy: -33016.7535552 eV PBE+vdW (tier 2 basis)
N    0.086242  0.661880  0.421893
C    -0.584653  0.370185  1.663567
C    0.246003  0.387722  2.960604
O    -0.263848  0.487590  4.081618
H    0.882089  0.050236  0.242813
H    0.408483  1.626171  0.365853
H    -1.337471  1.160468  1.819578
C    -1.325807  -0.985743  1.488500
C    -2.119400  -1.571356  2.688225
C    -3.209596  -0.684720  3.218798
O    -4.462739  -0.924610  2.905165
N    -2.896546  0.322609  3.982336
H    -0.589242  -1.752684  1.208292
H    -1.980392  -0.857410  0.616487
H    -1.435206  -1.795112  3.519084
H    -2.568436  -2.521282  2.373884
H    -1.849270  0.498734  4.157496
H    -3.604890  0.956064  4.348234
O    1.551908  0.287654  2.772652
H    2.012305  0.317869  3.638378
Ca    -6.302695  -1.492038  2.400438
