21
Energy: -33016.7589772 eV PBE+vdW (tier 2 basis)
N    -0.094181  -0.344786  -0.187886
C    -0.098706  -0.110219  1.250398
C    1.300029  0.270438  1.746865
O    2.051555  -0.449151  2.413756
H    -0.027375  0.517459  -0.726598
H    0.650431  -0.974273  -0.488481
H    -0.754219  0.754332  1.437078
C    -0.687039  -1.357702  1.932617
C    -0.950236  -1.272593  3.464489
C    -0.092557  -2.159814  4.322931
O    -0.651403  -2.859542  5.287092
N    1.188504  -2.228624  4.116135
H    -0.059034  -2.229479  1.698607
H    -1.643462  -1.537151  1.428903
H    -1.996703  -1.511901  3.684963
H    -0.796213  -0.241279  3.828803
H    1.614025  -1.591492  3.358189
H    1.787391  -2.815022  4.693851
O    1.676914  1.466982  1.309863
H    2.604889  1.636145  1.575488
Ca    -1.639281  -3.834139  6.710667
