21
Energy: -33017.8120516 eV PBE+vdW (tier 2 basis)
N    0.949300  -0.000143  0.197539
C    0.147548  0.021026  1.420726
C    1.050757  -0.380232  2.576559
O    2.109555  0.300174  2.799988
H    0.442801  0.457424  -0.563091
H    1.823473  0.514963  0.311630
H    -0.182586  1.041070  1.721702
C    -1.137348  -0.808778  1.242540
C    -0.939337  -2.195127  0.573340
C    -1.194998  -3.363028  1.461326
O    -0.751230  -3.407428  2.685123
N    -1.863575  -4.413391  1.048220
H    -1.794647  -0.218611  0.591168
H    -1.679273  -0.881249  2.195294
H    0.105463  -2.262197  0.211339
H    -1.560333  -2.289187  -0.325058
H    -2.259786  -4.453867  0.113947
H    -1.995841  -5.219189  1.658675
O    0.780761  -1.360874  3.387231
H    -0.234729  -2.578448  2.932095
Ca    2.574911  -0.770244  4.603695
