21
Energy: -33016.9028296 eV PBE+vdW (tier 2 basis)
N    0.531082  -0.745139  0.364422
C    -0.088847  -0.007945  1.470448
C    0.991625  0.417750  2.461977
O    1.044846  0.106077  3.649115
H    1.411457  -0.314856  0.078185
H    -0.075807  -0.733741  -0.457457
H    -0.543741  0.949968  1.148136
C    -1.223712  -0.843242  2.098818
C    -0.902435  -2.349395  2.255955
C    -0.606453  -2.870506  3.619087
O    -0.934752  -4.116611  3.902312
N    -0.015800  -2.140519  4.521726
H    -2.079244  -0.771118  1.415147
H    -1.559525  -0.385691  3.038545
H    -0.013211  -2.542174  1.610627
H    -1.707816  -2.968532  1.841973
H    0.209630  -2.522387  5.437556
H    0.337297  -1.168979  4.256966
O    1.887260  1.216601  1.890916
H    2.553249  1.492806  2.554739
Ca    -1.473098  -6.010059  4.128158
