21
Energy: -33018.7736253 eV PBE+vdW (tier 2 basis)
N    -0.418161  -0.316357  -0.029969
C    -0.396545  0.181267  1.401566
C    1.066487  0.690694  1.573030
O    1.324505  1.287699  2.687856
H    -1.000447  0.260319  -0.648423
H    -0.715596  -1.293995  -0.128452
H    -1.101762  1.017988  1.481896
C    -0.773201  -0.949234  2.383460
C    -1.120377  -0.472427  3.829029
C    -0.164025  -0.967404  4.897400
O    0.932155  -0.373726  5.137901
N    -0.495754  -2.048450  5.587283
H    0.031575  -1.699541  2.399284
H    -1.662415  -1.458157  1.986704
H    -2.136814  -0.799965  4.079002
H    -1.124980  0.623082  3.883891
H    0.123798  -2.404957  6.312569
H    -1.378820  -2.528845  5.445150
O    1.857285  0.457256  0.661635
H    0.612962  -0.210690  -0.301447
Ca    2.242482  1.222758  4.537477
