21
Energy: -33016.8507082 eV PBE+vdW (tier 2 basis)
N    -0.282674  0.058819  0.560276
C    -0.181023  -0.268631  2.027889
C    1.272405  -0.375440  2.515281
O    1.568447  -0.886207  3.562036
H    0.348183  0.834123  0.319503
H    -0.025942  -0.734944  -0.038133
H    -0.607940  0.612827  2.530483
C    -0.981673  -1.524609  2.412126
C    -2.364745  -1.749832  1.748062
C    -3.293063  -0.554813  1.619974
O    -4.504183  -0.665191  2.190119
N    -2.908739  0.466745  0.944477
H    -1.085113  -1.491186  3.503490
H    -0.375292  -2.417583  2.204983
H    -2.868638  -2.546863  2.305790
H    -2.228720  -2.143423  0.728395
H    -1.331468  0.337059  0.426421
H    -3.596705  1.220745  0.870861
O    2.120972  0.205383  1.635553
H    3.030697  0.154862  1.996939
Ca    -6.306284  -0.875322  2.935374
