21
Energy: -33016.4513634 eV PBE+vdW (tier 2 basis)
N    0.264833  0.203622  -0.062028
C    0.054648  -0.061331  1.338925
C    1.264065  -0.599631  2.146675
O    1.171839  -1.078659  3.267533
H    0.684422  -0.572695  -0.571417
H    0.813664  1.042399  -0.237596
H    -0.192135  0.900498  1.821056
C    -1.166053  -1.007998  1.506596
C    -1.679921  -1.076943  2.948185
C    -2.713983  -2.094839  3.264064
O    -3.069826  -2.277690  4.503825
N    -3.268570  -2.835156  2.330270
H    -0.870730  -2.011750  1.157403
H    -1.936564  -0.626142  0.822403
H    -2.084991  -0.101712  3.271556
H    -0.816148  -1.270324  3.615720
H    -3.018393  -2.705259  1.352186
H    -3.965388  -3.543715  2.549545
O    2.417826  -0.462374  1.489048
H    3.143877  -0.784000  2.063236
Ca    -3.241125  -2.348561  6.509795
