21
Energy: -33018.459875 eV PBE+vdW (tier 2 basis)
N    0.091979  -1.533079  0.369212
C    0.165057  -0.353335  1.293218
C    1.550115  0.277925  1.315924
O    1.831514  1.350153  1.741400
H    -0.078241  -1.177928  -0.579502
H    -0.763591  -2.051544  0.597648
H    -0.494297  0.442811  0.914643
C    -0.318694  -0.642351  2.739950
C    0.626020  -1.296766  3.774784
C    0.917579  -2.765773  3.601200
O    1.455787  -3.200280  2.529410
N    0.630772  -3.602144  4.582361
H    -1.267201  -1.196842  2.675737
H    -0.582766  0.337301  3.159491
H    0.189740  -1.122511  4.766689
H    1.599657  -0.778881  3.790241
H    0.212142  -3.285942  5.452760
H    0.856910  -4.592185  4.501679
O    2.567740  -0.590627  0.792394
H    3.397415  -0.065752  0.827470
Ca    2.102366  -2.867249  0.549292
