21
Energy: -33018.2275973 eV PBE+vdW (tier 2 basis)
N    0.661761  -0.434176  0.091824
C    -0.082075  -0.154101  1.307219
C    0.918508  -0.135920  2.457914
O    1.198233  -1.138559  3.174234
H    1.221082  0.342290  -0.256332
H    1.202483  -1.296962  0.094391
H    -0.495335  0.860947  1.218332
C    -1.214804  -1.169403  1.492747
C    -2.168299  -0.866714  2.678176
C    -2.451962  -2.073279  3.533659
O    -1.481366  -2.722161  4.059312
N    -3.694393  -2.453727  3.755091
H    -0.785380  -2.180442  1.582191
H    -1.780008  -1.180848  0.553343
H    -3.100094  -0.415973  2.317793
H    -1.720343  -0.125923  3.362742
H    -4.484684  -1.959241  3.349847
H    -3.893536  -3.253980  4.353449
O    1.561925  0.998204  2.588750
H    2.295043  0.937357  3.238202
Ca    0.604182  -2.891346  4.268150
