21
Energy: -33018.9822883 eV PBE+vdW (tier 2 basis)
N    0.128472  -0.910731  -0.026188
C    0.147846  0.112630  1.062093
C    1.343458  -0.221429  1.944417
O    1.693135  -1.402179  2.130591
H    -0.752729  -0.830962  -0.541846
H    0.844511  -0.653459  -0.715698
H    0.263533  1.122546  0.646711
C    -1.105730  0.089239  2.009539
C    -2.435490  -0.450983  1.455820
C    -2.605042  -1.954311  1.595453
O    -1.600403  -2.732370  1.592523
N    -3.828933  -2.441795  1.710803
H    -1.263344  1.126350  2.327379
H    -0.870074  -0.466540  2.928334
H    -2.597407  -0.185385  0.396904
H    -3.255940  0.049200  1.988857
H    -4.649123  -1.842562  1.737372
H    -3.978758  -3.445943  1.789448
O    1.902895  0.810196  2.515825
H    2.627149  0.541000  3.124503
Ca    0.478141  -3.040486  1.151858
