21
Energy: -33017.7262065 eV PBE+vdW (tier 2 basis)
N    0.202408  -0.073325  0.052683
C    -0.037740  0.047757  1.469342
C    1.192503  -0.274714  2.369205
O    1.206107  -1.225460  3.192882
H    0.761080  -0.881465  -0.219451
H    0.608885  0.763133  -0.362305
H    -0.328077  1.087560  1.685527
C    -1.104136  -0.927458  1.969188
C    -2.530340  -1.061528  1.466588
C    -3.138396  -2.224749  2.256054
O    -2.435255  -2.840803  3.129862
N    -4.387418  -2.581433  2.028587
H    -1.190288  -0.716107  3.052555
H    -0.652929  -1.923603  1.787346
H    -2.566120  -1.272162  0.387874
H    -3.124370  -0.150971  1.634786
H    -4.963951  -2.107575  1.338213
H    -4.806330  -3.350630  2.548405
O    2.230174  0.486416  2.154730
H    2.999462  0.224938  2.707398
Ca    -0.393938  -2.696041  3.916572
