21
Energy: -33018.70028 eV PBE+vdW (tier 2 basis)
N    0.749188  -0.075107  0.131115
C    -0.054010  0.226426  1.378072
C    0.956560  1.059376  2.239974
O    0.516693  1.447050  3.388280
H    0.346952  0.307377  -0.731411
H    0.935991  -1.074258  -0.011256
H    -0.869196  0.899915  1.081496
C    -0.598817  -1.030103  2.097313
C    -2.124717  -1.179951  2.164769
C    -2.868388  -0.267447  3.126976
O    -2.281252  0.369127  4.053194
N    -4.185008  -0.187336  2.992850
H    -0.180233  -1.073166  3.111127
H    -0.211551  -1.930956  1.600326
H    -2.352525  -2.207141  2.497065
H    -2.580200  -1.092732  1.166845
H    -4.739869  0.347634  3.657115
H    -4.686024  -0.702945  2.274794
O    2.062076  1.273974  1.754882
H    1.670122  0.437495  0.373563
Ca    -0.737793  1.515768  5.010910
