21
Energy: -33017.7357461 eV PBE+vdW (tier 2 basis)
N    -0.127515  -1.047364  -0.174956
C    -0.259880  -0.280365  1.068037
C    1.203283  -0.226141  1.513073
O    2.019516  0.510282  0.864410
H    -0.884231  -1.716256  -0.306383
H    -0.061455  -0.452210  -0.998407
H    -0.593450  0.759162  0.904743
C    -1.220688  -0.991244  2.024546
C    -1.393032  -0.350405  3.429945
C    -0.909099  -1.228747  4.542471
O    0.267565  -1.776696  4.506531
N    -1.645788  -1.477676  5.597520
H    -0.926742  -2.047992  2.110687
H    -2.202320  -0.994460  1.533713
H    -2.440258  -0.080914  3.607117
H    -0.827687  0.593792  3.512558
H    -2.582729  -1.096668  5.692678
H    -1.290256  -2.064789  6.351953
O    1.693624  -1.000235  2.443841
H    0.783250  -1.522795  3.669441
Ca    3.727869  -0.523469  1.634742
