21
Energy: -33018.7905956 eV PBE+vdW (tier 2 basis)
N    0.603849  0.642316  1.123177
C    0.150930  -0.188248  2.309339
C    1.300027  -1.219687  2.488155
O    1.174520  -2.013184  3.497670
H    0.845514  1.606291  1.381025
H    -0.068079  0.680043  0.349218
H    0.098983  0.472095  3.183520
C    -1.209757  -0.875897  2.112971
C    -1.251914  -2.031410  1.069086
C    -1.687877  -3.360515  1.656910
O    -1.029970  -3.909447  2.594460
N    -2.763280  -3.950286  1.160762
H    -1.968721  -0.122183  1.863155
H    -1.496913  -1.248611  3.104030
H    -0.254745  -2.217788  0.637161
H    -1.903763  -1.767828  0.227988
H    -3.065314  -4.855562  1.516194
H    -3.305562  -3.537076  0.408263
O    2.187690  -1.235505  1.635652
H    1.490570  0.120875  0.830057
Ca    0.633084  -3.954525  3.961156
