21
Energy: -33016.794014 eV PBE+vdW (tier 2 basis)
N    0.913616  -0.386671  -0.127338
C    -0.019744  -0.528559  0.962343
C    0.522360  -0.645693  2.398488
O    -0.226722  -0.786150  3.372517
H    1.559877  -1.173470  -0.194345
H    1.469841  0.464654  -0.059309
H    -0.609260  0.406407  0.999121
C    -0.988721  -1.724946  0.697282
C    -2.457791  -1.356329  0.465899
C    -3.285117  -0.938957  1.647818
O    -4.577495  -0.760578  1.448181
N    -2.782405  -0.763038  2.831937
H    -0.916452  -2.483971  1.488350
H    -0.640325  -2.205012  -0.225084
H    -2.986775  -2.216978  0.022994
H    -2.541754  -0.552047  -0.286588
H    -1.711470  -0.828337  3.045735
H    -3.394658  -0.482762  3.597526
O    1.834861  -0.565574  2.506843
H    2.092649  -0.630685  3.451306
Ca    -6.493053  -0.580360  0.954597
