21
Energy: -33017.6892954 eV PBE+vdW (tier 2 basis)
N    -1.062438  0.679604  1.050920
C    -0.365626  -0.034427  2.117036
C    1.004450  -0.305552  1.495804
O    2.024188  0.371433  1.845583
H    -1.701389  0.125353  0.488656
H    -1.531625  1.519752  1.379242
H    -0.163139  0.692822  2.913364
C    -1.075383  -1.226197  2.809680
C    -1.120162  -2.639110  2.165563
C    -1.708195  -2.732626  0.792240
O    -1.077456  -2.265924  -0.243803
N    -2.875275  -3.289013  0.572517
H    -2.101818  -0.887156  3.010470
H    -0.610141  -1.376282  3.793938
H    -1.687877  -3.290413  2.842060
H    -0.106685  -3.065710  2.106809
H    -3.420453  -3.694284  1.328272
H    -3.247423  -3.357001  -0.374984
O    1.151801  -1.151406  0.503612
H    -0.176015  -1.859904  0.016929
Ca    3.182977  -0.286799  0.160261
