21
Energy: -33018.0408687 eV PBE+vdW (tier 2 basis)
N    -0.029087  -1.172338  -0.280108
C    0.230205  -0.526697  1.001025
C    1.601690  -1.110191  1.371267
O    1.742274  -2.240367  1.882127
H    -1.011364  -1.396949  -0.425311
H    0.313732  -0.650104  -1.083673
H    0.319472  0.575346  0.933912
C    -0.890602  -0.863958  1.998999
C    -0.859061  -0.217436  3.391246
C    -0.078675  -0.908500  4.491495
O    0.268160  -2.131697  4.414546
N    0.192700  -0.215914  5.586210
H    -1.002021  -1.957117  2.076819
H    -1.816503  -0.521141  1.515487
H    -1.896785  -0.186604  3.766843
H    -0.550493  0.837525  3.335919
H    -0.093697  0.753572  5.692987
H    0.633368  -0.665042  6.386237
O    2.698167  -0.454340  1.078246
H    2.522327  0.424196  0.684870
Ca    1.215345  -3.681962  3.340662
