34
Energy: -246966.616529 eV PBE+vdW (tier 2 basis)
C    -2.495191  -1.756164  -1.862296
C    -2.149750  -0.598193  -0.985467
O    -1.651539  0.467193  -1.508672
H    -1.668112  -1.978110  -2.546321
H    -3.353987  -1.462120  -2.484727
H    -2.768531  -2.658119  -1.307987
N    -2.375428  -0.615408  0.315492
C    -2.536116  -1.726704  1.248672
C    -2.847412  -1.000749  2.586317
O    -2.485580  0.179126  2.705810
H    -2.211596  0.246344  0.871599
H    -3.364627  -2.380368  0.952263
C    -1.205862  -2.575041  1.380848
C    0.012116  -1.764291  1.004669
C    0.490093  -0.729805  1.827670
C    0.609229  -1.940887  -0.249578
C    1.438978  0.183909  1.366742
C    1.578832  -1.051538  -0.725317
C    1.952690  0.031940  0.075522
O    2.725889  1.027307  -0.544790
H    -1.279603  -3.453307  0.727983
H    -1.130389  -2.948848  2.410267
H    0.079887  -0.591574  2.826982
H    0.312505  -2.781364  -0.877379
H    1.769791  1.002219  2.008495
H    2.077673  -1.218058  -1.682240
H    3.384214  1.406912  0.065273
N    -3.442455  -1.701556  3.562529
C    -4.011683  -3.047384  3.487066
H    -3.595761  -1.170758  4.417167
H    -4.368314  -3.319888  4.484172
H    -3.264324  -3.794181  3.191049
H    -4.867567  -3.090143  2.799825
Ba    0.336074  1.750078  -1.751476
