34
Energy: -246966.720542 eV PBE+vdW (tier 2 basis)
C    -0.505955  -0.195897  -0.153645
C    -0.424457  0.588468  1.116988
O    -0.081782  1.811404  1.103542
H    -1.498261  -0.075406  -0.616341
H    -0.325227  -1.265598  -0.004679
H    0.231778  0.207327  -0.856257
N    -0.731291  0.006448  2.296669
C    -1.864365  -0.897527  2.467680
C    -3.164866  -0.044344  2.376150
O    -3.101187  1.199228  2.079379
H    -0.506806  0.576260  3.113353
H    -1.876737  -1.597073  1.619652
C    -1.718455  -1.715853  3.777033
C    -2.762878  -2.791745  3.965369
C    -2.875799  -3.864199  3.059067
C    -3.625984  -2.771060  5.072412
C    -3.818918  -4.865479  3.240172
C    -4.572212  -3.773657  5.272626
C    -4.675576  -4.830316  4.354938
O    -5.560841  -5.841859  4.473018
H    -1.736936  -1.028080  4.636502
H    -0.710379  -2.156652  3.745109
H    -2.197567  -3.939282  2.206138
H    -3.546861  -1.967150  5.806443
H    -3.895527  -5.700420  2.545520
H    -5.218981  -3.744010  6.150591
H    -6.072882  -5.762919  5.295880
N    -4.301391  -0.669775  2.600140
C    -5.636198  -0.080589  2.568355
H    -4.214472  -1.645852  2.917854
H    -6.062670  -0.073426  3.579296
H    -6.281002  -0.682571  1.917668
H    -5.581915  0.941018  2.186453
Ba    -1.983396  3.314586  1.544923
