34
Energy: -246966.969315 eV PBE+vdW (tier 2 basis)
C    -0.185545  0.680953  1.068943
C    -0.461847  0.359374  2.499435
O    -0.210174  1.182140  3.421522
H    -0.692617  1.619556  0.809234
H    -0.503021  -0.106722  0.377766
H    0.891749  0.856982  0.943929
N    -1.001527  -0.860167  2.793468
C    -1.273907  -1.144640  4.191258
C    -0.068993  -1.744011  4.937693
O    0.528635  -0.979310  5.753163
H    -1.207218  -1.511286  2.041834
H    -1.274234  -0.121014  4.552673
C    -2.681708  -1.605491  4.674657
C    -2.992382  -0.681800  5.844031
C    -2.498184  -0.942417  7.134444
C    -3.564893  0.580680  5.606040
C    -2.549171  0.021732  8.145146
C    -3.632419  1.557002  6.606957
C    -3.129501  1.280274  7.893802
O    -3.157146  2.160199  8.920405
H    -2.705014  -2.661524  4.968708
H    -3.408777  -1.468838  3.863371
H    -2.064770  -1.916314  7.365568
H    -3.979192  0.813105  4.623387
H    -2.202106  -0.205033  9.153158
H    -4.126717  2.508732  6.403042
H    -3.741164  2.915056  8.729004
N    0.330286  -2.992793  4.740889
C    -0.210986  -3.982650  3.812230
H    1.156411  -3.264917  5.275509
H    0.456515  -4.105280  2.949427
H    -1.204500  -3.686266  3.463980
H    -0.304774  -4.946813  4.324430
Ba    -0.129103  1.443502  6.031898
