34
Energy: -246966.931455 eV PBE+vdW (tier 2 basis)
C    1.070018  -0.637644  1.108730
C    -0.260839  0.014483  0.880101
O    -1.129439  -0.467394  0.138647
H    1.773161  -0.021003  1.679359
H    1.511891  -0.902869  0.141229
H    0.903037  -1.577787  1.653016
N    -0.499724  1.197960  1.536719
C    -1.835562  1.785292  1.615487
C    -2.232340  2.529915  0.315109
O    -2.640528  3.747315  0.333414
H    0.236516  1.596765  2.110220
H    -2.537671  0.935330  1.688608
C    -1.913769  2.643748  2.885993
C    -3.237667  3.290483  3.231918
C    -4.489235  2.740552  2.894024
C    -3.246851  4.484077  3.987293
C    -5.692313  3.351271  3.274783
C    -4.435338  5.104590  4.385454
C    -5.680451  4.529187  4.052473
O    -6.782167  5.160653  4.491134
H    -1.141841  3.427288  2.842167
H    -1.629634  1.987310  3.724628
H    -4.547824  1.808222  2.331221
H    -2.298612  4.928806  4.297086
H    -6.640857  2.877803  3.014180
H    -4.418775  6.001606  5.005107
H    -7.589394  4.633624  4.350899
N    -2.160034  1.821941  -0.787021
C    -2.455065  2.307624  -2.128959
H    -1.850454  0.824856  -0.637226
H    -3.500760  2.099618  -2.394404
H    -1.809365  1.782482  -2.839695
H    -2.266761  3.383550  -2.194853
Ba    -4.123352  5.382343  1.205159
