34
Energy: -246966.744936 eV PBE+vdW (tier 2 basis)
C    0.034006  0.021278  0.122726
C    -0.011247  -0.155679  1.612811
O    0.973925  -0.357532  2.323719
H    0.755727  -0.684254  -0.303057
H    0.402381  1.032818  -0.100031
H    -0.940897  -0.107042  -0.361399
N    -1.248943  -0.089719  2.227826
C    -1.242217  -0.069414  3.669047
C    -0.506682  -1.260048  4.294891
O    0.125625  -1.027494  5.385968
H    -2.082289  0.174462  1.712576
H    -0.635141  0.792193  4.004279
C    -2.661545  0.081378  4.273438
C    -2.644904  0.461370  5.738529
C    -2.387688  1.790554  6.138778
C    -2.918179  -0.473973  6.752521
C    -2.417454  2.176897  7.482947
C    -2.950619  -0.109491  8.106628
C    -2.732882  1.232437  8.484116
O    -2.780706  1.681578  9.752738
H    -3.242264  -0.839344  4.128057
H    -3.177131  0.874865  3.712258
H    -2.200689  2.556331  5.383153
H    -3.136365  -1.509353  6.487270
H    -2.276362  3.219432  7.769708
H    -3.209956  -0.855772  8.860126
H    -3.168708  1.025496  10.359394
N    -0.608017  -2.511057  3.873493
C    -1.252151  -3.063779  2.679888
H    -0.036360  -3.162645  4.409915
H    -0.591595  -2.978728  1.807511
H    -2.198776  -2.561334  2.470906
H    -1.451839  -4.122850  2.869647
Ba    0.172943  0.340418  7.314623
