34
Energy: -246966.98376 eV PBE+vdW (tier 2 basis)
C    0.600464  -1.340198  1.504433
C    -0.063311  -0.021389  1.244379
O    0.379924  0.737934  0.321302
H    0.441281  -1.981467  0.625155
H    0.211382  -1.854621  2.389277
H    1.684235  -1.205465  1.606977
N    -1.101817  0.294153  2.016969
C    -2.137098  1.326782  1.959919
C    -1.745735  2.701882  1.442454
O    -0.575906  3.187092  1.525660
H    -1.343615  -0.393463  2.744169
H    -2.946999  0.942081  1.317298
C    -2.715873  1.475862  3.421400
C    -3.041611  0.142325  4.036746
C    -2.151670  -0.469828  4.940093
C    -4.224636  -0.539714  3.707529
C    -2.425693  -1.715646  5.492931
C    -4.513946  -1.783023  4.255946
C    -3.612393  -2.383417  5.152415
O    -3.824023  -3.585862  5.727367
H    -3.608591  2.112302  3.357867
H    -1.973118  2.012301  4.028452
H    -1.247106  0.057263  5.251826
H    -4.948926  -0.085503  3.028396
H    -1.749685  -2.175966  6.211703
H    -5.448084  -2.286155  4.002128
H    -4.686473  -3.950151  5.464670
N    -2.759341  3.427402  0.973711
C    -2.679245  4.837809  0.599705
H    -3.670470  2.981094  0.907344
H    -3.637354  5.317237  0.823421
H    -2.477606  4.949872  -0.474279
H    -1.891588  5.327108  1.180079
Ba    1.469212  2.873939  0.241812
