34
Energy: -246966.721528 eV PBE+vdW (tier 2 basis)
C    -0.479467  -0.216547  -0.115270
C    -0.411194  0.570441  1.154571
O    -0.077535  1.795978  1.140106
H    -1.462723  -0.088420  -0.594721
H    -0.309004  -1.287212  0.037726
H    0.272636  0.179916  -0.806665
N    -0.718119  -0.012439  2.333835
C    -1.850129  -0.919663  2.500718
C    -3.147868  -0.064044  2.423505
O    -3.091985  1.174298  2.105752
H    -0.501528  0.561229  3.150033
H    -1.867188  -1.608085  1.643578
C    -1.701854  -1.756283  3.797641
C    -2.736944  -2.845527  3.961205
C    -2.824842  -3.909192  3.042067
C    -3.613328  -2.848626  5.058249
C    -3.755850  -4.924819  3.201203
C    -4.548886  -3.865938  5.235958
C    -4.626492  -4.913541  4.305829
O    -5.498918  -5.938505  4.401986
H    -1.730464  -1.083206  4.668291
H    -0.689859  -2.187635  3.763391
H    -2.135446  -3.965838  2.196714
H    -3.552638  -2.052999  5.803058
H    -3.812933  -5.753125  2.496793
H    -5.206126  -3.854578  6.106523
H    -6.021932  -5.875773  5.219321
N    -4.288344  -0.668664  2.679720
C    -5.601660  -0.027218  2.647589
H    -4.218665  -1.638272  3.018436
H    -6.363015  -0.801628  2.770661
H    -5.755373  0.476568  1.686774
H    -5.700163  0.703730  3.460352
Ba    -1.988705  3.294128  1.553171
