34
Energy: -246966.582832 eV PBE+vdW (tier 2 basis)
C    0.674650  -3.079240  1.815262
C    0.501778  -1.897770  2.710832
O    1.503310  -1.180806  3.044567
H    1.361030  -3.792507  2.292506
H    1.143042  -2.760606  0.874730
H    -0.267491  -3.590187  1.591373
N    -0.714099  -1.597886  3.171950
C    -0.943800  -0.510075  4.124767
C    -2.063471  -0.719027  5.175418
O    -1.786551  -0.356062  6.316163
H    -1.487937  -2.194939  2.893107
H    -0.058979  -0.512611  4.771277
C    -1.053820  0.894133  3.448604
C    0.067557  1.836210  3.824414
C    0.738229  2.602735  2.853876
C    0.444448  2.019268  5.175281
C    1.746225  3.516569  3.199927
C    1.447746  2.922890  5.537303
C    2.091580  3.708129  4.554523
O    3.021171  4.579634  4.984461
H    -2.006837  1.360000  3.741334
H    -1.093855  0.774232  2.358623
H    0.460281  2.507253  1.802596
H    -0.079102  1.464720  5.960182
H    2.219285  4.119038  2.421886
H    1.699337  3.085902  6.585824
H    3.303134  5.192828  4.281881
N    -3.274095  -1.206317  4.819922
C    -3.795117  -1.530077  3.497390
H    -3.915127  -1.288832  5.606917
H    -3.614920  -2.581271  3.217838
H    -3.390477  -0.860528  2.727622
H    -4.880043  -1.381947  3.500056
Ba    2.894919  0.592147  3.892589
