34
Energy: -246967.171738 eV PBE+vdW (tier 2 basis)
C    -0.370774  -1.639599  -0.114297
C    -0.308942  -1.157565  1.300369
O    0.809758  -1.004790  1.881391
H    0.213126  -2.562078  -0.221372
H    0.105584  -0.884035  -0.756047
H    -1.390962  -1.812354  -0.472432
N    -1.461125  -0.880811  1.924002
C    -1.644594  -0.185548  3.210505
C    -1.492318  -1.177548  4.385212
O    -0.378698  -1.782635  4.533785
H    -2.313258  -1.032895  1.388551
H    -0.801074  0.514935  3.320922
C    -2.964810  0.614841  3.107233
C    -3.399593  1.345689  4.355660
C    -4.636342  1.042783  4.952925
C    -2.608897  2.343433  4.943531
C    -5.063563  1.692093  6.106578
C    -3.024685  3.004726  6.094900
C    -4.255755  2.679501  6.689695
O    -4.727223  3.277317  7.805292
H    -3.769688  -0.071766  2.797485
H    -2.827965  1.322366  2.274097
H    -5.302233  0.312748  4.485034
H    -1.663778  2.641348  4.484657
H    -6.030889  1.468786  6.553736
H    -2.403320  3.791900  6.524657
H    -4.127460  3.982076  8.102844
N    -2.495838  -1.364607  5.215439
C    -2.457806  -2.253661  6.374826
H    -3.292905  -0.720551  5.136088
H    -1.941327  -3.183247  6.118196
H    -3.486601  -2.477084  6.671062
H    -1.942185  -1.770731  7.215761
Ba    1.945139  -1.822034  3.853714
