34
Energy: -246966.998201 eV PBE+vdW (tier 2 basis)
C    0.241898  1.327297  0.912756
C    -0.181675  0.966650  2.297145
O    0.188573  1.642587  3.297884
H    1.337988  1.286079  0.850805
H    -0.048675  2.366776  0.709966
H    -0.186155  0.675352  0.144245
N    -0.988242  -0.116399  2.466427
C    -1.429988  -0.425769  3.816911
C    -0.404256  -1.268418  4.601366
O    0.238602  -0.683299  5.524689
H    -1.302411  -0.635975  1.652272
H    -1.331944  0.556817  4.277420
C    -2.913593  -0.733720  4.139764
C    -3.096806  -0.202223  5.552675
C    -3.086354  1.190343  5.766666
C    -3.069866  -1.034810  6.675796
C    -2.991227  1.732778  7.051826
C    -2.991987  -0.513825  7.968409
C    -2.929688  0.873119  8.168732
O    -2.829607  1.461005  9.380974
H    -3.168022  -1.797550  4.071576
H    -3.547151  -0.191109  3.423350
H    -3.206379  1.871123  4.917647
H    -3.100835  -2.117863  6.549874
H    -3.077736  2.807471  7.221678
H    -2.984425  -1.190013  8.824606
H    -2.919439  0.809464  10.098347
N    -0.186420  -2.546912  4.326457
C    -0.770528  -3.374966  3.273518
H    0.535274  -2.982795  4.902308
H    -1.648820  -2.892012  2.838303
H    -1.084513  -4.334958  3.698857
H    -0.031719  -3.563826  2.484035
Ba    0.220124  1.786580  5.871713
