34
Energy: -246967.906442 eV PBE+vdW (tier 2 basis)
C    0.966796  -0.167463  0.548412
C    0.592540  0.111378  1.973540
O    1.446135  0.557571  2.778591
H    1.300221  0.769457  0.081707
H    0.154717  -0.592843  -0.050101
H    1.823465  -0.853649  0.532444
N    -0.685635  -0.137502  2.328725
C    -1.391128  0.039174  3.618020
C    -1.328193  1.486557  4.142378
O    -0.308677  1.951623  4.714670
H    -1.272456  -0.494169  1.580528
H    -2.439365  -0.147103  3.348695
C    -1.091925  -1.036635  4.701891
C    0.224811  -1.057718  5.446445
C    0.335278  -0.494897  6.734682
C    1.347995  -1.739734  4.944481
C    1.513374  -0.581893  7.480722
C    2.539203  -1.836605  5.671686
C    2.626624  -1.276937  6.963386
O    3.718084  -1.351664  7.747571
H    -1.237903  -2.009019  4.209677
H    -1.904743  -0.951922  5.437792
H    -0.524911  0.009106  7.177323
H    1.296340  -2.223819  3.969113
H    1.568611  -0.178338  8.491715
H    3.379593  -2.398376  5.260273
H    4.384335  -1.962616  7.385380
N    -2.429290  2.219270  3.992158
C    -2.550600  3.603138  4.454350
H    -3.228510  1.807869  3.520440
H    -3.595647  3.909602  4.361815
H    -1.924004  4.269014  3.847854
H    -2.242015  3.677704  5.502985
Ba    2.107425  1.385077  5.007393
