34
Energy: -246966.689605 eV PBE+vdW (tier 2 basis)
C    -0.816096  1.764545  -0.371979
C    -0.555600  0.610672  0.538026
O    0.363907  -0.233775  0.276099
H    0.099915  2.361971  -0.472877
H    -1.627272  2.412353  -0.023918
H    -1.066107  1.385226  -1.372342
N    -1.300449  0.457502  1.635442
C    -1.169235  -0.707114  2.515373
C    -2.447699  -1.111007  3.283059
O    -2.641389  -2.315372  3.417477
H    -2.081082  1.096156  1.767116
H    -1.024556  -1.567445  1.849049
C    0.053409  -0.609426  3.482835
C    1.099947  -1.676259  3.258129
C    2.474428  -1.362637  3.247102
C    0.740202  -3.032329  3.104497
C    3.454203  -2.348461  3.078325
C    1.707487  -4.032024  2.935993
C    3.080916  -3.704080  2.948298
O    4.075121  -4.600323  2.822346
H    -0.305387  -0.692655  4.519812
H    0.508747  0.385215  3.397452
H    2.793313  -0.328800  3.394133
H    -0.315203  -3.317706  3.148037
H    4.514604  -2.096353  3.110989
H    1.394221  -5.074982  2.855915
H    3.752610  -5.517257  2.889470
N    -3.243265  -0.134876  3.776837
C    -4.441907  -0.442590  4.562477
H    -2.903024  0.820771  3.816741
H    -4.199874  -0.565027  5.626417
H    -4.872887  -1.376453  4.190765
H    -5.166191  0.369060  4.443598
Ba    1.907188  -2.084521  0.324309
