34
Energy: -246966.740331 eV PBE+vdW (tier 2 basis)
C    -0.435287  2.037783  0.307409
C    -0.436180  0.671408  0.911277
O    0.254076  -0.268067  0.395019
H    0.592069  2.424138  0.274688
H    -1.065630  2.749347  0.850858
H    -0.786593  1.970169  -0.731549
N    -1.179417  0.439761  1.994256
C    -1.280166  -0.853537  2.675309
C    -2.651511  -1.029231  3.412869
O    -2.688646  -1.700303  4.434722
H    -1.670331  1.229335  2.410574
H    -1.272557  -1.619648  1.883057
C    -0.119665  -1.110212  3.665969
C    0.956290  -2.055468  3.204271
C    2.320557  -1.708517  3.258596
C    0.647779  -3.376556  2.802758
C    3.336155  -2.625230  2.941659
C    1.643435  -4.302484  2.476419
C    3.007469  -3.946608  2.573256
O    3.909006  -4.901811  2.278484
H    -0.602283  -1.545273  4.559566
H    0.319653  -0.152773  3.972388
H    2.607080  -0.708939  3.590154
H    -0.392192  -3.709547  2.795010
H    4.381927  -2.327032  3.040608
H    1.387708  -5.330784  2.218575
H    4.813054  -4.644964  2.535047
N    -3.723791  -0.435222  2.841349
C    -5.070636  -0.585060  3.397025
H    -3.640850  -0.041399  1.910506
H    -5.683728  0.264050  3.080226
H    -5.003468  -0.600851  4.488851
H    -5.538683  -1.519933  3.061412
Ba    1.797356  -2.103542  0.212380
