34
Energy: -246966.957832 eV PBE+vdW (tier 2 basis)
C    0.221960  1.862954  0.424237
C    -0.063684  0.503795  0.974864
O    0.447584  -0.535081  0.418988
H    -0.237665  2.663418  1.012133
H    -0.159159  1.913224  -0.605570
H    1.306412  2.026059  0.374207
N    -0.850101  0.395102  2.028991
C    -1.413860  -0.811999  2.620669
C    -2.765073  -0.286749  3.222761
O    -2.867327  0.924645  3.422706
H    -1.344663  1.220746  2.423408
H    -1.592445  -1.559963  1.832964
C    -0.548139  -1.405671  3.763619
C    0.763703  -2.058271  3.388367
C    1.964398  -1.320515  3.315123
C    0.860718  -3.453949  3.225277
C    3.201599  -1.940583  3.114071
C    2.093004  -4.099797  3.033378
C    3.284980  -3.347622  3.012498
O    4.516589  -3.875500  2.866517
H    -1.164111  -2.146364  4.291809
H    -0.357095  -0.600562  4.487600
H    1.940459  -0.239669  3.460584
H    -0.037076  -4.069782  3.304494
H    4.125072  -1.360375  3.117614
H    2.128602  -5.189422  2.973353
H    4.517983  -4.842036  2.989022
N    -3.698884  -1.205874  3.510292
C    -4.988485  -0.873401  4.118375
H    -3.535897  -2.172137  3.248514
H    -4.985719  0.190682  4.368323
H    -5.136972  -1.462400  5.030808
H    -5.805830  -1.077673  3.416256
Ba    1.821122  -2.441232  0.334750
