34
Energy: -246966.598999 eV PBE+vdW (tier 2 basis)
C    1.143245  -3.343938  3.304761
C    0.705356  -1.963800  3.672420
O    1.539829  -1.119529  4.141747
H    0.331727  -3.960122  2.903944
H    1.558777  -3.836173  4.194945
H    1.949159  -3.288551  2.561132
N    -0.571850  -1.625251  3.515149
C    -1.142624  -0.320984  3.870806
C    -2.684972  -0.477444  4.104473
O    -3.466852  0.180796  3.432490
H    -1.199653  -2.321468  3.117689
H    -0.677243  -0.025372  4.824491
C    -0.889075  0.755564  2.791856
C    0.169329  1.781387  3.091756
C    1.134961  2.133905  2.127126
C    0.179301  2.517188  4.299648
C    2.058944  3.169708  2.337892
C    1.097172  3.545905  4.534086
C    2.032157  3.908701  3.538940
O    2.857574  4.933144  3.822469
H    -1.862305  1.261499  2.653860
H    -0.677959  0.266064  1.833045
H    1.148377  1.612357  1.168412
H    -0.576027  2.320298  5.062637
H    2.759463  3.437042  1.544074
H    1.056561  4.132428  5.452532
H    3.348069  5.237465  3.037657
N    -3.082160  -1.358392  5.056906
C    -2.291328  -2.104401  6.028487
H    -4.095201  -1.428927  5.130462
H    -2.888606  -2.238701  6.936427
H    -1.386238  -1.554193  6.314062
H    -2.004265  -3.100784  5.662091
Ba    2.819357  0.890579  4.426529
