34
Energy: -246966.861371 eV PBE+vdW (tier 2 basis)
C    0.091279  -1.040913  0.404910
C    0.119756  -0.706424  1.860670
O    1.244040  -0.545957  2.461118
H    0.597523  -2.005012  0.254878
H    0.655179  -0.289334  -0.162740
H    -0.925394  -1.108152  0.005635
N    -1.022539  -0.588568  2.510093
C    -1.238144  -0.448521  3.945207
C    -2.641970  -1.117023  4.136755
O    -3.350770  -1.242597  3.136086
H    -1.931529  -0.812833  2.056578
H    -0.451316  -0.991388  4.488686
C    -1.318399  1.028441  4.415231
C    -0.031509  1.821415  4.456745
C    0.390038  2.607611  3.363932
C    0.729638  1.908744  5.638720
C    1.496091  3.459613  3.449719
C    1.837581  2.764199  5.751402
C    2.209781  3.579667  4.663213
O    3.235316  4.454430  4.682652
H    -1.755587  1.035666  5.422441
H    -2.042295  1.542476  3.767402
H    -0.183148  2.588868  2.435913
H    0.424526  1.340083  6.519167
H    1.771967  4.103762  2.613971
H    2.361876  2.847058  6.705561
H    3.557263  4.621898  5.586804
N    -3.024891  -1.494947  5.369293
C    -2.292273  -1.430658  6.625980
H    -3.972057  -1.868709  5.399089
H    -1.212826  -1.521736  6.457774
H    -2.594333  -2.274228  7.255702
H    -2.498245  -0.501527  7.177896
Ba    2.897374  0.655601  3.620520
