34
Energy: -246966.514677 eV PBE+vdW (tier 2 basis)
C    0.306484  -0.156636  0.394500
C    0.160527  0.422151  1.783013
O    0.977301  1.143699  2.310497
H    -0.594022  -0.022637  -0.221457
H    0.536090  -1.231961  0.442079
H    1.148896  0.342536  -0.091747
N    -1.029212  0.116622  2.492500
C    -1.984137  -0.922609  2.178919
C    -3.236415  -0.366261  1.479697
O    -4.130104  -1.169664  1.040901
H    -0.965860  0.420566  3.463895
H    -1.535136  -1.622895  1.456079
C    -2.354932  -1.707683  3.471348
C    -3.152516  -2.983201  3.326142
C    -2.626190  -4.114763  2.669164
C    -4.409416  -3.131723  3.948558
C    -3.307583  -5.339201  2.639486
C    -5.106927  -4.345921  3.932923
C    -4.546228  -5.478745  3.304366
O    -5.251212  -6.621900  3.363267
H    -2.878135  -1.029792  4.161005
H    -1.397665  -1.959119  3.952056
H    -1.642299  -4.061702  2.199374
H    -4.841715  -2.290185  4.492702
H    -2.843802  -6.202591  2.158248
H    -6.052216  -4.454942  4.465709
H    -4.736067  -7.389840  3.056164
N    -3.320566  0.939236  1.356582
C    -4.394353  1.695531  0.724271
H    -2.509255  1.437448  1.738828
H    -3.978392  2.324261  -0.071923
H    -4.879735  2.341803  1.465852
H    -5.128189  1.006049  0.300325
Ba    -5.169392  -3.312761  0.962519
