34
Energy: -246967.032087 eV PBE+vdW (tier 2 basis)
C    -0.677098  -1.915744  0.264642
C    -0.450261  -1.259572  1.589029
O    0.574734  -1.550380  2.276760
H    -1.497328  -1.471632  -0.308712
H    -0.912319  -2.974805  0.446908
H    0.244076  -1.884556  -0.329078
N    -1.365223  -0.375633  2.010595
C    -1.546187  0.216244  3.350045
C    -0.490520  1.271934  3.684534
O    0.715879  0.939196  3.913180
H    -2.163131  -0.262272  1.392259
H    -2.517995  0.716646  3.284589
C    -1.677764  -0.838133  4.489470
C    -2.758531  -1.844786  4.202236
C    -4.110887  -1.516747  4.397604
C    -2.450834  -3.117655  3.705138
C    -5.120494  -2.420977  4.102996
C    -3.451680  -4.040557  3.410138
C    -4.797695  -3.694491  3.604484
O    -5.829805  -4.527456  3.348010
H    -1.887599  -0.280053  5.414746
H    -0.718129  -1.353027  4.645162
H    -4.384770  -0.543884  4.811947
H    -1.408251  -3.414063  3.568755
H    -6.167290  -2.172816  4.270633
H    -3.189588  -5.035449  3.047184
H    -5.510695  -5.394103  3.044832
N    -0.855354  2.541655  3.808858
C    -2.174490  3.149832  3.595185
H    -0.105487  3.166469  4.104902
H    -2.055720  4.235054  3.657119
H    -2.887313  2.838558  4.368841
H    -2.566156  2.909358  2.600336
Ba    2.319905  -0.876155  3.790674
