24
Energy: -178491.9850425  eV PBE+vdW (tier 2 basis)
C    0.073636  0.905714  0.488045
C    -0.211623  0.194612  1.771959
O    0.664680  0.230998  2.682380
H    0.186694  1.978631  0.699071
H    -0.696532  0.765747  -0.277384
H    1.040524  0.556779  0.100600
N    -1.390773  -0.462173  1.862203
C    -1.995655  -1.315813  2.908966
C    -2.509481  -0.485791  4.103703
O    -1.716587  0.176516  4.844054
H    -1.966880  -0.380357  1.028492
H    -2.878709  -1.724018  2.401274
C    -1.201318  -2.608950  3.268367
S    0.051842  -2.740782  4.635420
H    -0.639862  -2.930388  2.381772
H    -1.916772  -3.406584  3.505118
H    -0.812264  -2.791696  5.684643
N    -3.810958  -0.452796  4.352537
C    -4.922107  -1.070202  3.613035
H    -4.060492  0.129152  5.154819
H    -5.843389  -0.859902  4.163552
H    -4.810970  -2.159533  3.554681
H    -5.022423  -0.637381  2.609685
Cd    0.426423  -0.221785  4.765010
