24
Energy: -178491.0771092  eV PBE+vdW (tier 2 basis)
C    0.106652  1.265487  0.058457
C    -0.280279  0.667163  1.369178
O    0.444304  1.013951  2.383851
H    0.158719  2.357992  0.149371
H    -0.576060  0.981708  -0.748936
H    1.121359  0.919143  -0.191798
N    -1.315137  -0.165263  1.408816
C    -1.722037  -1.208037  2.351807
C    -2.322970  -2.312758  1.352040
O    -2.594287  -1.934677  0.216371
H    -1.780853  -0.409327  0.499960
H    -0.850560  -1.643956  2.868271
C    -2.850208  -0.804783  3.326662
S    -2.326352  -0.265656  5.057650
H    -3.486928  -1.669971  3.554974
H    -3.474223  -0.009785  2.904180
H    -3.099488  0.850765  5.180488
N    -2.513833  -3.535732  1.851986
C    -3.070498  -4.637898  1.053034
H    -2.138167  -3.767775  2.766680
H    -3.655711  -5.289674  1.709007
H    -2.265628  -5.216824  0.583087
H    -3.715371  -4.220596  0.275010
Cd    -0.227145  0.852896  4.332791
