24
Energy: -178490.8973659  eV PBE+vdW (tier 2 basis)
C    -0.280950  0.260329  -0.065342
C    -0.244978  0.146129  1.426070
O    0.772170  0.351180  2.102021
H    -0.163093  1.322032  -0.327946
H    -1.209977  -0.111352  -0.511347
H    0.578867  -0.271333  -0.489590
N    -1.419187  -0.202771  2.066013
C    -1.531706  -0.121973  3.519015
C    -0.930669  -1.382351  4.207928
O    -1.610704  -2.210141  4.937548
H    -2.206105  -0.532777  1.514040
H    -0.880329  0.719006  3.816900
C    -2.995313  0.235836  3.830821
S    -3.495688  0.719152  5.551808
H    -3.696353  -0.572351  3.575958
H    -3.269874  1.116285  3.233728
H    -2.398815  1.449588  5.902191
N    0.338043  -1.585007  3.950313
C    1.164190  -2.681397  4.444816
H    0.761788  -0.882506  3.289148
H    2.117615  -2.269926  4.797004
H    1.372793  -3.377692  3.620731
H    0.653950  -3.215735  5.249052
Cd    -2.762681  -1.505868  6.558672
