24
Energy: -178491.0772314  eV PBE+vdW (tier 2 basis)
C    -0.242886  -0.855945  0.100455
C    -0.052647  -0.286245  1.467833
O    1.024660  -0.580074  2.077217
H    -1.158432  -0.510547  -0.391620
H    -0.274918  -1.952486  0.185768
H    0.629016  -0.610135  -0.519554
N    -1.037557  0.486012  1.968247
C    -1.280447  1.017214  3.330544
C    -0.434652  2.271311  3.651843
O    0.811121  2.212679  3.937010
H    -1.811823  0.632039  1.325100
H    -2.329169  1.341749  3.300131
C    -1.216333  -0.037729  4.456014
S    -2.245346  -1.467263  4.040672
H    -1.549764  0.428837  5.391685
H    -0.169267  -0.397016  4.657514
H    -2.420508  -1.883233  5.318729
N    -1.057281  3.434735  3.644735
C    -0.439724  4.734659  3.932414
H    -2.055387  3.439439  3.443222
H    -0.800231  5.103978  4.900888
H    -0.727770  5.442957  3.147467
H    0.646298  4.625781  3.959267
Cd    1.846942  0.346256  3.812596
