24
Energy: -178490.3074708  eV PBE+vdW (tier 2 basis)
C    0.010947  0.382014  0.023591
C    0.098328  -0.003666  1.452729
O    1.249094  0.033253  2.007158
H    -1.016811  0.591623  -0.297085
H    0.487936  -0.381247  -0.609857
H    0.619388  1.291820  -0.102295
N    -0.981099  -0.319835  2.229365
C    -2.064799  -1.291660  2.026449
C    -1.541050  -2.702979  2.462214
O    -0.360572  -2.904683  2.907873
H    -0.816245  -0.125278  3.218305
H    -2.843068  -1.013783  2.755987
C    -2.713053  -1.293296  0.633860
S    -3.471039  0.342382  0.303453
H    -3.515882  -2.040760  0.613316
H    -1.995253  -1.563346  -0.151955
H    -4.154918  -0.052550  -0.799138
N    -2.380065  -3.717879  2.404328
C    -2.057662  -5.089065  2.828454
H    -3.325716  -3.545066  2.071344
H    -2.935559  -5.715055  2.651301
H    -1.806476  -5.104566  3.895568
H    -1.211097  -5.473755  2.248616
Cd    1.395617  -1.692686  3.320650
