24
Energy: -178490.9014792  eV PBE+vdW (tier 2 basis)
C    0.295193  0.957265  0.383293
C    -0.005453  -0.049643  1.442429
O    0.998133  -0.520129  2.090502
H    1.012128  0.531805  -0.331595
H    0.786779  1.823248  0.850508
H    -0.604595  1.292270  -0.143686
N    -1.281413  -0.394198  1.650674
C    -1.849620  -1.117177  2.780580
C    -1.722463  -2.654947  2.645644
O    -0.785768  -3.254339  3.306852
H    -2.016864  0.134975  1.136379
H    -1.243573  -0.895086  3.677282
C    -3.287144  -0.553228  3.128660
S    -4.055054  0.565918  1.915215
H    -3.176085  0.061157  4.029280
H    -3.971950  -1.364777  3.393264
H    -4.767244  -0.353295  1.222837
N    -2.523702  -3.411250  1.924880
C    -3.673967  -3.052611  1.092362
H    -2.300253  -4.408527  1.975926
H    -3.771618  -3.817195  0.314952
H    -3.513845  -2.085812  0.606593
H    -4.598818  -3.040664  1.684016
Cd    0.993194  -2.114759  3.474153
