24
Energy: -178490.9382465  eV PBE+vdW (tier 2 basis)
C    -0.369190  -0.615696  0.173566
C    -0.284117  -0.004130  1.532585
O    0.879667  0.201607  2.012111
H    -1.399687  -0.786461  -0.156258
H    0.186778  -1.562679  0.165518
H    0.131982  0.052906  -0.541948
N    -1.428381  0.307797  2.169701
C    -1.562559  1.133586  3.380439
C    -1.360972  0.311819  4.683701
O    -0.222239  0.390136  5.286891
H    -2.285230  0.093297  1.663221
H    -0.718658  1.842350  3.382066
C    -2.829231  2.011518  3.330336
S    -3.079571  2.903507  4.899333
H    -3.736918  1.416003  3.174689
H    -2.751749  2.714062  2.492069
H    -2.235248  3.931740  4.640713
N    -2.264088  -0.498738  5.197987
C    -3.655084  -0.749817  4.810381
H    -1.952030  -0.956530  6.057787
H    -3.763149  -0.795966  3.722975
H    -4.323507  0.012873  5.231978
H    -3.941789  -1.723553  5.219331
Cd    1.476970  0.601373  4.026831
