24
Energy: -178492.0958850  eV PBE+vdW (tier 2 basis)
C    -0.796701  0.467495  -0.414983
C    -0.416818  0.498395  1.031877
O    0.800146  0.354230  1.333234
H    -0.316574  1.320504  -0.916568
H    -1.876563  0.511592  -0.591074
H    -0.385031  -0.440298  -0.874598
N    -1.421590  0.686051  1.923380
C    -1.437570  0.885037  3.388894
C    -0.536190  2.045769  3.881069
O    0.711999  1.918734  4.081535
H    -2.336462  0.781268  1.490228
H    -2.469473  1.214532  3.582922
C    -1.360795  -0.399074  4.258318
S    0.106647  -1.536970  4.302974
H    -2.202602  -1.055790  4.004582
H    -1.478497  -0.111561  5.312487
H    -0.116420  -2.180086  3.125239
N    -1.136306  3.200235  4.124592
C    -0.447778  4.407201  4.597096
H    -2.145682  3.259087  4.013634
H    0.584072  4.404380  4.236144
H    -0.448887  4.436211  5.694512
H    -0.978609  5.282762  4.211416
Cd    1.706684  0.168299  3.289086
