24
Energy: -178490.9772267  eV PBE+vdW (tier 2 basis)
C    0.160437  -0.412614  0.000590
C    0.187067  -0.647989  1.474211
O    1.069717  -1.499183  1.889577
H    1.162763  -0.130461  -0.346871
H    -0.569877  0.350700  -0.286777
H    -0.094109  -1.360626  -0.497229
N    -0.674346  0.011268  2.237909
C    -1.158604  -0.189820  3.602167
C    -2.641718  0.396317  3.499505
O    -2.899416  1.062957  2.500818
H    -1.380686  0.634608  1.772159
H    -1.227103  -1.263731  3.843310
C    -0.387085  0.609398  4.683421
S    0.719033  -0.439574  5.778303
H    -1.071865  1.062490  5.411820
H    0.215554  1.404215  4.231482
H    1.725305  0.456960  5.987572
N    -3.494573  0.146483  4.500458
C    -3.317275  -0.684173  5.688318
H    -4.406306  0.586181  4.373322
H    -4.284004  -1.124354  5.954096
H    -2.962964  -0.101205  6.550810
H    -2.630964  -1.517934  5.495505
Cd    1.684218  -1.693536  3.854145
