24
Energy: -178490.4392254  eV PBE+vdW (tier 2 basis)
C    -0.052940  0.272739  -0.068824
C    0.062810  0.031656  1.391865
O    1.220208  0.145578  1.931371
H    -1.033643  0.653164  -0.364214
H    0.169251  -0.655335  -0.621657
H    0.730755  0.987154  -0.355906
N    -0.988579  -0.264243  2.204840
C    -2.058004  -1.268507  2.064994
C    -1.467756  -2.659762  2.454206
O    -0.294684  -2.810705  2.974030
H    -0.811611  -0.012649  3.178525
H    -2.780142  -1.014982  2.857294
C    -2.811883  -1.208829  0.714629
S    -4.364050  -2.171892  0.628094
H    -2.205955  -1.606019  -0.109037
H    -3.049138  -0.160998  0.494580
H    -5.062635  -1.447552  1.539698
N    -2.234565  -3.710220  2.302662
C    -1.877601  -5.086320  2.669668
H    -3.167728  -3.527920  1.878710
H    -2.725511  -5.730864  2.425230
H    -1.669040  -5.147604  3.744261
H    -0.994648  -5.415094  2.109358
Cd    1.425099  -1.575454  3.232075
