24
Energy: -178491.0741180  eV PBE+vdW (tier 2 basis)
C    0.134583  -0.175378  -0.129798
C    -0.037807  -0.055220  1.346660
O    0.642558  0.843926  1.947313
H    -0.413223  -1.022423  -0.557051
H    1.201501  -0.251884  -0.374081
H    -0.234330  0.753055  -0.592810
N    -0.904484  -0.879653  1.960108
C    -1.522776  -0.716287  3.285771
C    -0.718215  -1.461042  4.378197
O    0.334140  -0.927782  4.887835
H    -1.360469  -1.551437  1.344815
H    -1.462000  0.352697  3.551608
C    -3.023729  -1.079528  3.217157
S    -3.985497  -0.069081  2.043209
H    -3.467680  -1.003962  4.217847
H    -3.162037  -2.114868  2.866378
H    -4.118202  1.014849  2.846549
N    -1.114854  -2.641555  4.802120
C    -0.437026  -3.446802  5.827602
H    -1.984314  -3.014284  4.426044
H    -0.581775  -4.504628  5.587670
H    -0.871059  -3.235455  6.813554
H    0.628883  -3.206579  5.838898
Cd    1.197810  0.806324  3.999407
