24
Energy: -178490.7280029  eV PBE+vdW (tier 2 basis)
C    0.680550  1.375500  1.726056
C    0.042694  0.066994  2.051744
O    0.747910  -0.845881  2.618556
H    1.070976  1.803378  2.661971
H    -0.003754  2.093825  1.263113
H    1.547909  1.218396  1.070736
N    -1.253781  -0.090644  1.765930
C    -2.254836  -1.074365  2.189918
C    -1.869981  -2.545740  2.076129
O    -1.002233  -2.956022  1.219104
H    -1.725765  0.740679  1.381056
H    -2.507592  -0.860074  3.241560
C    -3.532689  -0.855662  1.315760
S    -4.109661  0.877984  1.424701
H    -4.330179  -1.514786  1.676183
H    -3.319166  -1.113032  0.271478
H    -4.288150  1.063782  0.094745
N    -2.527301  -3.440630  2.797911
C    -3.605021  -3.275957  3.778561
H    -2.271698  -4.406786  2.580547
H    -3.620571  -2.261262  4.186299
H    -3.435419  -3.982499  4.598427
H    -4.575944  -3.501304  3.317657
Cd    1.076698  -2.702896  1.643860
