24
Energy: -178490.9648680  eV PBE+vdW (tier 2 basis)
C    -0.744167  -1.915784  0.211770
C    -0.880607  -1.335351  1.581108
O    -0.915908  -2.148415  2.558260
H    -0.667078  -1.159399  -0.576590
H    -1.622795  -2.548402  0.016281
H    0.134281  -2.573717  0.183326
N    -0.971986  0.005775  1.687077
C    -1.325748  0.882932  2.827002
C    -0.150225  1.098954  3.803990
O    0.217515  0.207733  4.648135
H    -0.908570  0.492553  0.796449
H    -1.530817  1.851553  2.356559
C    -2.630423  0.504011  3.560365
S    -3.977572  0.284716  2.371555
H    -2.868010  1.295589  4.282583
H    -2.533908  -0.436521  4.169573
H    -4.977491  0.516362  3.256742
N    0.492610  2.252169  3.797051
C    0.270169  3.439709  2.956866
H    1.244439  2.313663  4.487317
H    0.356322  3.195125  1.891713
H    1.052350  4.164515  3.199169
H    -0.701170  3.902082  3.171389
Cd    -0.678173  -1.730789  4.636027
