24
Energy: -178491.0730577  eV PBE+vdW (tier 2 basis)
C    -0.036912  0.090966  -0.067051
C    0.039758  0.079786  1.422165
O    1.122176  0.495215  1.959090
H    -0.965322  -0.345462  -0.451310
H    0.830733  -0.433034  -0.487457
H    0.027448  1.137284  -0.403755
N    -1.029652  -0.346603  2.116304
C    -1.346788  -0.097016  3.531739
C    -0.865274  -1.261899  4.430236
O    0.374945  -1.364137  4.750543
H    -1.811991  -0.657087  1.542420
H    -0.762349  0.782286  3.853023
C    -2.839982  0.273633  3.681310
S    -3.351045  1.742799  2.730277
H    -3.077896  0.421706  4.742357
H    -3.485421  -0.534903  3.302061
H    -2.857953  2.664363  3.593846
N    -1.728208  -2.144320  4.885433
C    -1.404533  -3.290005  5.746401
H    -2.704954  -2.032122  4.621124
H    -0.449775  -3.114234  6.246911
H    -1.342176  -4.202618  5.139666
H    -2.201870  -3.403312  6.487993
Cd    1.834688  -0.081667  3.877282
