24
Energy: -178491.1045963  eV PBE+vdW (tier 2 basis)
C    -2.040836  -0.228738  -0.341548
C    -1.355121  -0.533675  0.948513
O    -0.254282  -1.179097  0.891663
H    -1.364664  0.383405  -0.957086
H    -2.986798  0.307219  -0.208893
H    -2.212778  -1.162206  -0.893555
N    -1.914657  -0.101307  2.092847
C    -1.278630  -0.014992  3.422816
C    -1.527901  -1.301756  4.245309
O    -0.755436  -2.319770  4.108583
H    -2.808535  0.376391  1.989625
H    -0.189438  0.031642  3.263350
C    -1.666985  1.302885  4.122383
S    -0.804357  1.503886  5.717873
H    -2.748401  1.351710  4.327253
H    -1.438901  2.146472  3.460639
H    0.237387  2.225748  5.239416
N    -2.548611  -1.378633  5.070364
C    -2.875561  -2.555443  5.888659
H    -3.120086  -0.547977  5.206168
H    -2.215913  -2.595330  6.765184
H    -2.747524  -3.466401  5.296529
H    -3.914423  -2.466841  6.217069
Cd    0.573451  -2.377193  2.448840
