24
Energy: -178490.9605520  eV PBE+vdW (tier 2 basis)
C    0.132991  -0.996292  0.558574
C    -0.286370  -0.017745  1.604217
O    0.644457  0.468170  2.343579
H    0.828981  -0.496528  -0.131303
H    -0.715517  -1.394117  -0.008327
H    0.687967  -1.818493  1.029454
N    -1.583143  0.293304  1.702150
C    -2.211367  1.392543  2.425706
C    -2.477531  1.057154  3.916208
O    -1.625113  1.468027  4.799780
H    -2.240916  -0.126762  1.015754
H    -1.496745  2.233212  2.478981
C    -3.428390  1.957304  1.603863
S    -4.227507  0.795400  0.443268
H    -3.077819  2.820422  1.030287
H    -4.194115  2.331446  2.292526
H    -3.650189  1.274404  -0.684338
N    -3.530878  0.406764  4.363089
C    -4.681729  -0.162928  3.654377
H    -3.541514  0.305484  5.381433
H    -5.071032  -0.983452  4.265360
H    -4.384662  -0.568837  2.682684
H    -5.475946  0.584760  3.530096
Cd    0.376385  1.572193  4.121613
