24
Energy: -178491.0712580  eV PBE+vdW (tier 2 basis)
C    -1.887834  0.626107  -0.242196
C    -1.397868  -0.183774  0.910138
O    -0.800550  -1.284693  0.654685
H    -1.017320  0.910509  -0.853729
H    -2.417288  1.535257  0.062566
H    -2.532744  0.009313  -0.881362
N    -1.585707  0.289949  2.154705
C    -0.887309  -0.093256  3.399795
C    -1.700498  -1.148429  4.185523
O    -2.020360  -2.266149  3.629636
H    -2.125870  1.152059  2.211064
H    0.056564  -0.588190  3.108316
C    -0.532156  1.225351  4.121384
S    0.422549  0.939456  5.665986
H    -1.446404  1.790208  4.356209
H    0.075621  1.826209  3.433124
H    0.267064  2.199953  6.139329
N    -2.068387  -0.905364  5.420609
C    -2.801975  -1.824740  6.294629
H    -1.696740  -0.043466  5.847285
H    -3.853959  -1.515317  6.350184
H    -2.361965  -1.773513  7.296246
H    -2.741541  -2.842546  5.902665
Cd    -1.041898  -2.999410  1.892861
