24
Energy: -178490.7775509  eV PBE+vdW (tier 2 basis)
C    0.467022  -0.669700  0.254341
C    0.101863  -0.103642  1.585501
O    1.015702  -0.004292  2.486265
H    1.278393  -0.055009  -0.164107
H    -0.366741  -0.693626  -0.454818
H    0.875571  -1.681996  0.376286
N    -1.155810  0.305348  1.770587
C    -1.813671  1.137678  2.780635
C    -1.491682  0.857369  4.240568
O    -1.171463  -0.320493  4.654030
H    -1.777195  0.218652  0.948955
H    -1.563830  2.186930  2.557919
C    -3.368366  0.960806  2.606337
S    -3.947724  1.030531  0.887366
H    -3.890257  1.710550  3.210195
H    -3.665961  -0.032460  2.968220
H    -3.748560  2.358924  0.692349
N    -1.675135  1.814888  5.137293
C    -2.123783  3.201158  4.975554
H    -1.545481  1.500649  6.101808
H    -1.601959  3.818834  5.714169
H    -3.204241  3.277752  5.156304
H    -1.890356  3.579073  3.975714
Cd    0.812974  -1.022935  4.330430
