24
Energy: -178490.3939689  eV PBE+vdW (tier 2 basis)
C    -1.278341  1.675187  -0.050904
C    -0.154359  1.073656  0.711578
O    1.039116  1.415524  0.397858
H    -2.197207  1.757541  0.534474
H    -1.468907  1.086327  -0.963557
H    -0.959829  2.668505  -0.395215
N    -0.316234  0.206368  1.750066
C    -1.130756  -1.014961  1.852180
C    -0.407214  -2.153235  1.065601
O    0.802909  -2.049390  0.628458
H    0.478474  0.207297  2.391139
H    -1.068177  -1.296436  2.916966
C    -2.623555  -0.821229  1.509094
S    -3.629552  -2.163370  2.270171
H    -2.799600  -0.807380  0.428161
H    -2.958395  0.129005  1.942785
H    -4.599915  -2.174555  1.324128
N    -1.047663  -3.284099  0.902118
C    -0.503861  -4.483273  0.252393
H    -2.010572  -3.318807  1.295502
H    -1.280470  -5.252003  0.259255
H    0.373327  -4.845105  0.801972
H    -0.217451  -4.260934  -0.781928
Cd    2.175814  -0.433348  0.367614
