24
Energy: -178491.0950045  eV PBE+vdW (tier 2 basis)
C    -0.137313  0.577079  0.072268
C    0.002336  0.454280  1.551827
O    1.121977  0.780012  2.078355
H    0.010614  1.634416  -0.197478
H    -1.115156  0.251446  -0.298525
H    0.662391  0.012304  -0.424261
N    -1.055464  0.030176  2.265425
C    -1.320652  0.192677  3.711571
C    -0.899762  -1.071444  4.495868
O    0.292531  -1.546267  4.365784
H    -1.862372  -0.251381  1.710312
H    -0.665763  1.004692  4.074220
C    -2.790191  0.692274  3.808657
S    -3.551853  0.869153  5.453981
H    -3.460029  -0.008281  3.286748
H    -2.846756  1.652117  3.280020
H    -2.661815  1.754160  5.969800
N    -1.747706  -1.663492  5.300188
C    -1.462092  -2.834253  6.133687
H    -2.649321  -1.178078  5.444967
H    -0.390369  -2.899819  6.338228
H    -1.788735  -3.744444  5.613310
H    -2.025106  -2.736528  7.067257
Cd    1.922605  -0.374799  3.676791
