24
Energy: -178490.1554292  eV PBE+vdW (tier 2 basis)
C    -0.052100  -1.024849  1.000407
C    -1.203602  -1.402776  1.869384
O    -1.571744  -2.625355  2.005633
H    0.848510  -1.539837  1.374046
H    0.158571  0.046885  0.972516
H    -0.233509  -1.374731  -0.023891
N    -1.928187  -0.515956  2.557363
C    -2.015969  0.919009  2.449467
C    -2.525093  1.379596  3.870137
O    -3.276996  0.621853  4.474886
H    -2.638617  -0.900568  3.199577
H    -1.043940  1.354921  2.191671
C    -3.126449  1.406613  1.441208
S    -2.760877  0.994700  -0.277015
H    -3.268134  2.487200  1.547404
H    -4.070740  0.909332  1.702257
H    -2.168677  2.166607  -0.620064
N    -2.123443  2.590694  4.283509
C    -2.471044  3.126017  5.600344
H    -1.444522  3.103356  3.727154
H    -2.545405  4.216353  5.524435
H    -1.703347  2.871649  6.344459
H    -3.427796  2.696861  5.914764
Cd    -0.428458  -4.469151  2.098293
