24
Energy: -178490.6148190  eV PBE+vdW (tier 2 basis)
C    0.200701  0.332414  0.174208
C    -0.077430  0.265128  1.628769
O    0.819581  0.636704  2.461749
H    0.432790  1.362365  -0.130949
H    -0.599748  -0.090202  -0.440038
H    1.121861  -0.247616  -0.005176
N    -1.253208  -0.211792  2.119124
C    -2.597036  0.142829  1.671801
C    -3.093803  1.308215  2.581951
O    -2.324962  1.938887  3.406656
H    -1.196946  -0.553755  3.080978
H    -2.513215  0.548798  0.652739
C    -3.499821  -1.121902  1.643516
S    -5.185228  -0.921917  0.973119
H    -3.649770  -1.509383  2.661255
H    -2.977745  -1.896262  1.068539
H    -4.828299  -0.716128  -0.320381
N    -4.346528  1.672510  2.471689
C    -4.983340  2.772180  3.206607
H    -4.933204  1.077232  1.849994
H    -5.994348  2.900374  2.811827
H    -4.414079  3.697758  3.066710
H    -5.036204  2.536779  4.276688
Cd    -0.253887  1.818821  3.938728
