24
Energy: -178492.0986525  eV PBE+vdW (tier 2 basis)
C    -0.604993  0.952912  -0.545841
C    -1.083563  0.321707  0.722097
O    -0.236576  -0.269202  1.452377
H    0.120135  1.739933  -0.294521
H    -1.405850  1.379465  -1.158468
H    -0.061429  0.198249  -1.130528
N    -2.405132  0.409234  0.993373
C    -3.248047  -0.128133  2.085999
C    -3.052881  0.652501  3.405432
O    -1.948181  0.646246  4.030432
H    -2.932749  0.926390  0.294708
H    -4.264750  0.093271  1.732635
C    -3.277193  -1.684798  2.203067
S    -2.180327  -2.682522  3.322441
H    -3.083155  -2.115231  1.212264
H    -4.287005  -1.995348  2.499450
H    -2.793037  -2.392754  4.501726
N    -4.089904  1.345123  3.852954
C    -4.093156  2.154706  5.076434
H    -4.939862  1.359924  3.293737
H    -3.215093  1.907531  5.677030
H    -5.008155  1.943198  5.640456
H    -4.069440  3.219976  4.813648
Cd    -0.432654  -0.837379  3.510098
