21
Energy: -611971.3721663  eV PBE+vdW (tier 2 basis)
N    0.089062  1.102432  1.618897
C    -0.274415  0.089241  2.696824
C    0.940008  -0.084012  3.594632
O    0.798737  -0.674705  4.713297
H    -0.489803  0.972126  0.776684
H    -0.036405  2.073910  1.937199
H    -1.104445  0.512773  3.279622
C    -0.703854  -1.261611  2.074734
C    -2.036082  -1.187361  1.299835
S    -2.635017  -2.830079  0.817147
C    -1.793813  -3.115956  -0.755324
H    -0.819890  -1.960589  2.913611
H    0.106817  -1.654736  1.441433
H    -1.977417  -0.564723  0.392001
H    -2.824840  -0.768657  1.941818
H    -2.147376  -4.094886  -1.100545
H    -0.704079  -3.161622  -0.638125
H    -2.077909  -2.355788  -1.493780
O    2.084777  0.327799  3.194232
H    1.088372  0.989072  1.373076
Pb    3.062707  -0.467621  5.237702
