21
Energy: -611969.9981720  eV PBE+vdW (tier 2 basis)
N    -0.312831  0.749905  0.589417
C    -0.223305  0.369940  1.983906
C    1.284753  0.515715  2.225435
O    1.769282  1.597575  2.655213
H    -0.846733  1.586266  0.379868
H    -0.471636  0.002352  -0.079583
H    -0.700339  1.132400  2.614794
C    -0.771759  -1.021713  2.339755
C    -2.303376  -1.069547  2.259199
S    -2.877086  -2.766235  2.563183
C    -4.660739  -2.575383  2.473031
H    -0.446574  -1.297276  3.354607
H    -0.355256  -1.780173  1.650500
H    -2.668040  -0.753323  1.269585
H    -2.758098  -0.407948  3.012607
H    -5.015653  -1.883770  3.248991
H    -5.082681  -3.571579  2.647495
H    -4.962180  -2.216361  1.479673
O    2.146198  -0.429164  1.904978
H    1.712543  -1.255447  1.607056
Pb    3.886227  2.375941  2.888513
