21
Energy: -611969.8799983  eV PBE+vdW (tier 2 basis)
N    0.535909  -0.383353  -0.229765
C    0.143462  -0.204877  1.125038
C    1.279908  0.326818  2.094004
O    1.156396  0.307968  3.293647
H    1.296361  -1.037613  -0.407048
H    0.622626  0.457963  -0.795095
H    -0.604331  0.605762  1.166063
C    -0.443439  -1.489269  1.757486
C    -1.836438  -1.780331  1.198928
S    -2.480746  -3.391072  1.852802
C    -2.771676  -3.089577  3.627046
H    -0.473684  -1.328754  2.842903
H    0.232821  -2.335069  1.563090
H    -1.812735  -1.918165  0.108400
H    -2.562486  -0.996528  1.450840
H    -3.394079  -2.203353  3.784916
H    -1.789766  -2.970277  4.099654
H    -3.249808  -3.988017  4.034493
O    2.313366  0.808867  1.405044
H    2.975617  1.175083  2.030463
Pb    -4.854816  -4.052847  0.723125
