21
Energy: -611971.5001820  eV PBE+vdW (tier 2 basis)
N    0.002903  -0.337043  0.388008
C    0.389741  -0.483416  1.851362
C    1.888804  -0.347783  1.949054
O    2.548032  0.127484  0.952008
H    -0.934149  0.078991  0.289877
H    -0.004191  -1.245795  -0.098244
H    -0.073076  0.392112  2.381807
C    -0.241067  -1.719121  2.510631
C    -0.523960  -1.464469  4.005849
S    -1.462168  0.059227  4.319790
C    -3.167701  -0.444617  3.973386
H    0.394784  -2.608107  2.388036
H    -1.193490  -1.932113  1.999821
H    0.411769  -1.356113  4.568181
H    -1.063371  -2.320855  4.430264
H    -3.477737  -1.210086  4.694952
H    -3.303434  -0.811040  2.949434
H    -3.781169  0.452097  4.117394
O    2.482848  -0.637965  3.040917
H    0.694070  0.265980  -0.093011
Pb    4.542979  0.074179  2.226280
