21
Energy: -611971.2371942  eV PBE+vdW (tier 2 basis)
N    1.303843  -0.404580  0.236085
C    0.440429  -0.239582  1.445179
C    1.156914  -0.886015  2.623363
O    1.931482  -1.858006  2.482495
H    2.061106  0.289856  0.242087
H    0.753243  -0.204145  -0.606251
H    0.287620  0.826323  1.667405
C    -0.949628  -0.898138  1.241781
C    -0.974031  -2.430594  1.179968
S    -2.507858  -3.233198  0.765142
C    -3.097181  -2.383436  -0.716089
H    -1.379673  -0.458290  0.330242
H    -1.596911  -0.575365  2.069038
H    -0.698018  -2.879783  2.145290
H    -0.167386  -2.812868  0.436588
H    -3.995543  -2.940146  -1.011049
H    -2.366298  -2.453758  -1.532391
H    -3.380923  -1.343641  -0.518850
O    0.850080  -0.375798  3.779927
H    1.291197  -0.844507  4.525320
Pb    2.221407  -2.711092  0.314307
