21
Energy: -611972.1858725  eV PBE+vdW (tier 2 basis)
N    0.949491  -0.427796  -0.211767
C    0.558609  -0.007319  1.164143
C    1.790264  -0.111889  2.067586
O    2.688933  -0.940722  1.839362
H    0.106877  -0.631661  -0.758450
H    1.409507  0.349868  -0.699849
H    0.206167  1.035779  1.140719
C    -0.586725  -0.886252  1.739595
C    -0.242311  -2.248622  2.350278
S    0.477000  -3.581143  1.314370
C    -0.802516  -3.928113  0.070378
H    -1.358117  -0.982503  0.960783
H    -1.073449  -0.310176  2.541494
H    -1.155375  -2.693322  2.771332
H    0.466330  -2.167746  3.187352
H    -0.420233  -4.749081  -0.548191
H    -1.047121  -3.064348  -0.555747
H    -1.693372  -4.278425  0.606064
O    1.888211  0.612166  3.150391
H    1.189145  1.289687  3.253076
Pb    2.580909  -2.336934  -0.042847
