21
Energy: -611970.9834966  eV PBE+vdW (tier 2 basis)
N    0.225213  -0.246691  -0.592698
C    0.239635  0.158382  0.795960
C    1.735671  0.357303  1.041438
O    2.241921  1.514049  0.794790
H    0.298918  -1.237364  -0.796935
H    -0.451030  0.222787  -1.186236
H    -0.169821  1.176578  0.841964
C    -0.571185  -0.672256  1.826084
C    -0.597612  -2.193721  1.695025
S    0.813949  -3.158973  2.367481
C    0.690392  -2.958181  4.162815
H    -1.618941  -0.361722  1.691887
H    -0.312227  -0.358984  2.848733
H    -0.675628  -2.535445  0.652956
H    -1.464082  -2.620577  2.219231
H    1.601820  -3.394018  4.588959
H    -0.175802  -3.550454  4.480109
H    0.580973  -1.908449  4.448911
O    2.539954  -0.598973  1.387163
H    1.788694  -2.226002  2.090397
Pb    4.382816  0.857471  1.026900
