21
Energy: -611971.4569583  eV PBE+vdW (tier 2 basis)
N    0.114029  0.852408  0.909839
C    0.081572  -0.262058  1.909452
C    1.526709  -0.742113  2.210557
O    2.461419  0.190835  2.197976
H    0.146304  0.489165  -0.049732
H    -0.744304  1.410163  0.965677
H    -0.239526  0.206974  2.855030
C    -0.950667  -1.373953  1.619506
C    -0.677216  -2.382215  0.491560
S    0.226719  -3.920798  0.946190
C    -0.877900  -4.796617  2.080777
H    -1.908627  -0.881206  1.394656
H    -1.130874  -1.899309  2.567528
H    -0.080942  -1.977187  -0.339151
H    -1.615626  -2.739146  0.048156
H    -1.213780  -4.158957  2.903544
H    -0.292698  -5.640953  2.466458
H    -1.718738  -5.175524  1.489350
O    1.776247  -1.900276  2.511929
H    1.052373  -3.251501  1.859333
Pb    2.225733  2.164287  1.370476
