21
Energy: -611971.0933737  eV PBE+vdW (tier 2 basis)
N    -0.181636  0.665839  0.534960
C    0.117479  0.227680  1.886599
C    1.623885  -0.040936  1.782152
O    2.057848  -1.140927  1.271989
H    -0.764768  1.493804  0.466384
H    -0.493460  -0.068636  -0.095447
H    0.007755  1.092334  2.557670
C    -0.712389  -0.978717  2.370489
C    -0.548411  -1.375709  3.838619
S    -1.520669  -0.452830  5.100788
C    -3.256107  -0.811102  4.732017
H    -0.432128  -1.861322  1.774515
H    -1.766182  -0.781713  2.127265
H    0.483712  -1.285217  4.207311
H    -0.857917  -2.414620  4.023788
H    -3.489765  -0.656902  3.674992
H    -3.846884  -0.141975  5.370155
H    -3.424348  -1.850561  5.037464
O    2.461339  0.885653  2.090189
H    -1.445573  0.801524  4.576323
Pb    4.177014  -0.248456  1.079611
