21
Energy: -611971.4771874  eV PBE+vdW (tier 2 basis)
N    -0.144147  0.545750  2.452670
C    1.155162  0.024590  1.999834
C    1.540949  0.645518  0.654345
O    1.105360  0.158242  -0.452330
H    -0.122160  1.555092  2.607511
H    -0.904868  0.337149  1.802703
H    1.909586  0.384314  2.714936
C    1.173466  -1.519808  1.942893
C    0.352721  -2.236101  3.024285
S    0.642936  -1.545016  4.701288
C    -0.620053  -2.344963  5.722658
H    2.217411  -1.858919  1.970604
H    0.758516  -1.859687  0.982412
H    0.630997  -3.295540  3.083728
H    -0.726861  -2.163923  2.847790
H    -1.606011  -2.275643  5.253233
H    -0.602646  -1.833456  6.692457
H    -0.307116  -3.387321  5.852469
O    2.261396  1.710288  0.637401
H    0.000647  -0.367088  4.365790
Pb    2.212153  1.794576  -1.662054
