21
Energy: -611972.3368077  eV PBE+vdW (tier 2 basis)
N    0.452316  -0.159798  -0.078425
C    0.179739  0.103368  1.395288
C    1.524621  0.153123  2.109299
O    2.491851  -0.487878  1.576564
H    1.308221  -0.741686  -0.153100
H    0.639134  0.716921  -0.587736
H    -0.356151  1.056579  1.469054
C    -0.649008  -1.019912  2.057465
C    0.027790  -2.377666  2.321611
S    1.143048  -2.640938  3.775043
C    0.142972  -2.095033  5.190120
H    -1.535840  -1.212956  1.431832
H    -1.051285  -0.598469  2.988005
H    0.622863  -2.746117  1.474322
H    -0.758262  -3.127311  2.489078
H    -0.785191  -2.679002  5.197678
H    -0.064315  -1.020485  5.166374
H    0.718054  -2.350442  6.088760
O    1.564716  0.638750  3.273557
H    -0.333532  -0.629391  -0.550311
Pb    3.357256  -0.826654  3.805519
