21
Energy: -611971.6695402  eV PBE+vdW (tier 2 basis)
N    -1.340444  0.147621  0.451129
C    -1.551087  -0.347402  1.860700
C    -0.210035  -0.276939  2.587983
O    -0.049946  -0.944385  3.663420
H    -0.816146  1.033420  0.427970
H    -0.744037  -0.617057  -0.015327
H    -2.197494  0.379574  2.379600
C    -2.226297  -1.737185  1.887176
C    -1.815979  -2.709980  0.768021
S    -0.026079  -2.604942  0.388910
C    0.079051  -3.536832  -1.165372
H    -3.314980  -1.599141  1.842167
H    -2.013205  -2.165834  2.874364
H    -2.367718  -2.503639  -0.160922
H    -2.068692  -3.734165  1.068823
H    1.123163  -3.473225  -1.491028
H    -0.574275  -3.106829  -1.932041
H    -0.178311  -4.584512  -0.975484
O    0.711512  0.505873  2.158787
H    -2.229885  0.271399  -0.049139
Pb    2.085885  -0.100815  3.961263
