21
Energy: -611971.3244202  eV PBE+vdW (tier 2 basis)
N    0.161067  0.261859  0.049050
C    0.156895  0.042429  1.560343
C    1.620330  -0.046168  1.998800
O    2.537042  0.213571  1.144703
H    -0.638098  0.832691  -0.258728
H    0.117976  -0.635247  -0.456941
H    -0.256952  0.963257  2.002291
C    -0.731941  -1.167184  1.929253
C    -1.161094  -1.188566  3.407567
S    -2.114716  -2.672434  3.838018
C    -3.769847  -2.279116  3.235129
H    -0.209894  -2.101978  1.675436
H    -1.633009  -1.116959  1.297359
H    -1.747393  -0.293507  3.663683
H    -0.286490  -1.217401  4.068507
H    -3.803023  -2.185629  2.142482
H    -4.150163  -1.368277  3.714668
H    -4.398407  -3.127710  3.529982
O    1.897438  -0.340903  3.202328
H    1.046348  0.724563  -0.227645
Pb    4.213620  -0.092141  2.844008
