21
Energy: -611971.1908870  eV PBE+vdW (tier 2 basis)
N    0.478487  -0.358741  -0.035284
C    0.216752  -0.153313  1.377350
C    1.467905  0.617128  1.803650
O    1.455074  1.903786  1.775948
H    -0.322928  -0.213720  -0.642238
H    0.967804  -1.221280  -0.260549
H    -0.623982  0.547664  1.472532
C    -0.075618  -1.451294  2.172981
C    -0.490161  -1.195780  3.619366
S    -0.959577  -2.662768  4.624982
C    -2.318327  -3.474750  3.747006
H    0.811487  -2.101909  2.139573
H    -0.881231  -1.957332  1.623839
H    -1.373761  -0.545521  3.708494
H    0.309195  -0.746756  4.227541
H    -3.187492  -2.813428  3.842470
H    -2.509273  -4.407719  4.292401
H    -2.069439  -3.675171  2.701752
O    2.568056  0.003095  2.071767
H    0.055289  -3.495599  4.261878
Pb    3.724963  2.007664  1.948889
