21
Energy: -611971.1023535  eV PBE+vdW (tier 2 basis)
N    0.681672  -0.161544  0.083034
C    0.391798  -0.062134  1.504941
C    1.758850  -0.421123  2.096007
O    2.134821  -1.651671  2.164001
H    0.495007  -1.076679  -0.320994
H    0.279913  0.579369  -0.483970
H    0.223450  0.998535  1.740440
C    -0.772040  -0.950570  1.993039
C    -1.311286  -0.692701  3.405566
S    -2.549299  0.673257  3.435356
C    -3.070376  0.778127  5.167570
H    -0.450110  -2.002854  1.966205
H    -1.586377  -0.869380  1.257769
H    -0.542997  -0.473772  4.158344
H    -1.904248  -1.549227  3.756284
H    -3.695982  -0.102724  5.353519
H    -3.680709  1.685987  5.250927
H    -2.207679  0.812051  5.839445
O    2.590843  0.509765  2.406959
H    -1.708384  1.743049  3.410388
Pb    4.315544  -0.997690  2.506271
