21
Energy: -611969.9441102  eV PBE+vdW (tier 2 basis)
N    -0.532077  1.201466  0.881789
C    -0.367285  0.528970  2.117389
C    1.094829  0.519705  2.679948
O    1.413050  -0.147749  3.641682
H    -0.000502  0.884619  0.074881
H    -0.703263  2.202467  0.893247
H    -0.948083  1.071428  2.881408
C    -0.900300  -0.942380  2.014461
C    -1.138067  -1.570231  3.389528
S    -1.662887  -3.349556  3.217838
C    -3.384369  -3.277904  2.617734
H    -0.190797  -1.549057  1.433542
H    -1.836122  -0.881245  1.445070
H    -1.911926  -1.048988  3.968152
H    -0.210694  -1.617387  3.972390
H    -3.350638  -2.852241  1.608062
H    -4.012533  -2.672235  3.277911
H    -3.751969  -4.307977  2.552354
O    1.897035  1.331149  1.995790
H    2.790818  1.323455  2.401496
Pb    -1.612530  -4.593954  5.606205
