21
Energy: -611970.7545155  eV PBE+vdW (tier 2 basis)
N    0.673194  0.225828  0.189175
C    0.261701  0.146968  1.627051
C    1.487156  0.402487  2.506078
O    2.573806  0.813182  2.038294
H    -0.075830  0.664845  -0.356726
H    0.759716  -0.725980  -0.189587
H    -0.409956  1.003441  1.817470
C    -0.514241  -1.168335  1.932141
C    -1.343384  -1.172448  3.234363
S    -2.630482  -2.461114  3.247937
C    -1.713607  -3.942722  3.717759
H    0.180193  -2.021980  1.911952
H    -1.219921  -1.306458  1.099937
H    -1.902726  -0.231544  3.348439
H    -0.737471  -1.330156  4.144417
H    -1.254855  -3.820648  4.707364
H    -0.961109  -4.218578  2.968874
H    -2.464306  -4.740567  3.771097
O    1.425598  0.240648  3.795836
H    0.553722  -0.094025  4.103928
Pb    2.913510  1.353387  -0.145590
