21
Energy: -611969.9362252  eV PBE+vdW (tier 2 basis)
N    0.486844  -0.310994  0.079849
C    -0.227043  -0.170798  1.344600
C    0.784692  0.069310  2.469706
O    1.973768  -0.173403  2.364536
H    1.349054  0.235539  0.042883
H    -0.094148  -0.102273  -0.731883
H    -0.922844  0.686100  1.342274
C    -1.057841  -1.447115  1.594466
C    -0.242682  -2.737511  1.696440
S    0.801194  -3.042804  0.185228
C    2.532736  -2.749057  0.667285
H    -1.812896  -1.539413  0.800686
H    -1.613766  -1.351012  2.539995
H    -0.912718  -3.599816  1.791154
H    0.462087  -2.753266  2.538669
H    3.131082  -2.769380  -0.251882
H    2.878404  -3.487080  1.397034
H    2.547604  -1.735844  1.104561
O    0.186023  0.543803  3.561286
H    0.854834  0.698383  4.261700
Pb    0.819162  -5.624070  -0.538528
