21
Energy: -611971.1370195  eV PBE+vdW (tier 2 basis)
N    0.062256  0.552991  0.105880
C    -0.693226  0.708980  1.391776
C    0.221088  1.280452  2.471816
O    1.468868  1.311465  2.334608
H    -0.256116  1.263689  -0.565138
H    -0.280366  -0.378185  -0.339393
H    -1.520724  1.420946  1.235747
C    -1.275327  -0.646823  1.880575
C    -2.302327  -1.269258  0.922892
S    -1.635060  -1.866100  -0.673030
C    -0.857970  -3.435260  -0.200876
H    -1.769226  -0.482435  2.850749
H    -0.450726  -1.348962  2.081495
H    -3.091120  -0.550214  0.659826
H    -2.797325  -2.113757  1.420747
H    -0.068221  -3.311472  0.549907
H    -0.427074  -3.848514  -1.120119
H    -1.628304  -4.121902  0.169474
O    -0.250213  1.718552  3.602213
H    -1.227240  1.710735  3.671712
Pb    2.468938  0.822971  0.363396
