21
Energy: -611971.3175690  eV PBE+vdW (tier 2 basis)
N    -0.318004  0.296541  0.097412
C    -0.068275  0.062509  1.582278
C    1.443777  -0.054079  1.787348
O    2.232113  0.257678  0.829005
H    -1.170091  0.851703  -0.062394
H    -0.428317  -0.598526  -0.402587
H    -0.370076  0.992098  2.090953
C    -0.900040  -1.099312  2.138524
C    -0.635234  -2.461480  1.485911
S    -1.458655  -3.733661  2.495118
C    -1.490895  -5.141559  1.368612
H    -1.967220  -0.841127  2.073257
H    -0.667314  -1.144669  3.212756
H    0.444447  -2.681855  1.433454
H    -1.047952  -2.526973  0.464872
H    -1.963820  -5.955224  1.931043
H    -0.475835  -5.444795  1.084260
H    -2.095919  -4.922365  0.479846
O    1.883668  -0.386230  2.932481
H    0.494842  0.784198  -0.318562
Pb    4.108214  0.022411  2.316114
