21
Energy: -611970.3970265  eV PBE+vdW (tier 2 basis)
N    -0.076234  -0.184988  -0.139608
C    -0.078768  -0.125502  1.277765
C    1.296514  -0.269254  1.940389
O    2.384796  -0.539029  1.638055
H    0.359513  0.605113  -0.611254
H    0.245835  -1.063817  -0.542769
H    -0.391505  0.890295  1.579690
C    -1.046107  -1.177671  1.897170
C    -2.446342  -0.638981  2.146806
S    -2.439349  0.799222  3.309693
C    -4.061245  0.715714  4.132022
H    -0.636366  -1.618057  2.818665
H    -1.130229  -2.010844  1.184563
H    -3.100291  -1.404254  2.582071
H    -2.903891  -0.251259  1.225577
H    -4.209469  -0.242971  4.638221
H    -4.815572  0.866672  3.349695
H    -4.110584  1.553685  4.837181
O    1.109465  0.144409  3.558787
H    2.037159  0.122052  3.878984
Pb    -0.441357  0.499995  5.203038
