21
Energy: -611971.4622157  eV PBE+vdW (tier 2 basis)
N    0.232280  1.051663  0.781126
C    0.129205  -0.053190  1.787727
C    1.519937  -0.716493  1.985194
O    2.565638  0.089127  1.883256
H    0.156186  0.685807  -0.175154
H    -0.547032  1.708925  0.888757
H    -0.069596  0.448361  2.749413
C    -1.044207  -1.031211  1.557460
C    -0.858357  -2.174210  0.534441
S    -0.588599  -3.758720  1.426135
C    0.052663  -4.903411  0.181200
H    -1.924882  -0.443011  1.263692
H    -1.315117  -1.447411  2.539459
H    -0.016140  -2.031956  -0.155342
H    -1.767782  -2.332289  -0.056574
H    -0.773587  -5.140159  -0.498654
H    0.344107  -5.808866  0.728165
H    0.907570  -4.473766  -0.349202
O    1.637539  -1.895137  2.275362
H    0.583951  -3.300748  2.005922
Pb    2.511577  2.088462  1.093746
