24
Energy: -249510.0231617  eV PBE+vdW (tier 2 basis)
C    -0.016532  -0.315183  0.030372
C    -0.013232  -0.028710  1.498462
O    1.068925  0.259242  2.095684
H    -0.778836  0.278795  -0.489097
H    -0.235452  -1.375380  -0.169577
H    0.967663  -0.080188  -0.384188
N    -1.155911  -0.077128  2.223573
C    -2.189924  -1.109969  2.100096
C    -1.491444  -2.496052  2.262774
O    -0.299033  -2.569244  2.702225
H    -1.060845  0.323147  3.154931
H    -2.816556  -0.984863  2.996851
C    -3.142333  -0.961441  0.893120
S    -4.021350  0.631515  0.867712
H    -3.957397  -1.693092  0.987053
H    -2.646838  -1.162722  -0.063265
H    -2.969785  1.389394  0.478462
N    -2.184124  -3.583182  1.974408
C    -1.696811  -4.953988  2.157763
H    -3.130217  -3.466345  1.621780
H    -2.474711  -5.643739  1.821015
H    -1.481398  -5.144461  3.215870
H    -0.790315  -5.118769  1.564026
Ba    1.877483  -1.629922  3.456728
