24
Energy: -249510.1273410  eV PBE+vdW (tier 2 basis)
C    -0.070514  0.252750  -0.054582
C    -0.174613  -0.036829  1.406316
O    0.840954  -0.377770  2.085542
H    0.217794  1.303601  -0.217660
H    -1.008034  0.063138  -0.588122
H    0.728691  -0.367504  -0.476210
N    -1.367179  0.076744  2.037785
C    -2.280860  1.194058  1.826167
C    -1.586014  2.475431  2.364461
O    -0.528901  2.373250  3.074554
H    -1.357985  -0.277274  2.995109
H    -2.463710  1.309322  0.749138
C    -3.630103  0.903812  2.523441
S    -4.602071  -0.397438  1.709585
H    -4.267493  1.794661  2.490583
H    -3.470592  0.677440  3.588057
H    -3.882770  -1.451527  2.159733
N    -2.090401  3.667643  2.088995
C    -3.252069  4.019455  1.265963
H    -1.598282  4.448027  2.525424
H    -3.008988  4.920237  0.692412
H    -4.123714  4.230439  1.898666
H    -3.495551  3.218087  0.562854
Ba    1.567022  1.260920  3.789283
