24
Energy: -249510.6082384  eV PBE+vdW (tier 2 basis)
C    0.337057  -1.561206  1.080403
C    -0.307092  -0.421054  1.796524
O    0.387689  0.515062  2.294506
H    1.087426  -2.027841  1.731699
H    0.873564  -1.165954  0.205882
H    -0.374694  -2.322726  0.745414
N    -1.646155  -0.397246  1.898917
C    -2.402863  0.740789  2.428918
C    -2.320528  0.793501  3.973266
O    -1.456367  1.583380  4.476502
H    -2.164844  -1.150370  1.453812
H    -1.865030  1.645484  2.112100
C    -3.802967  0.836136  1.793705
S    -3.750387  1.438352  0.073250
H    -4.389383  1.582643  2.345388
H    -4.360124  -0.106180  1.844768
H    -3.510270  0.245689  -0.519075
N    -3.093792  0.073449  4.772660
C    -4.118495  -0.925829  4.454918
H    -2.942276  0.259159  5.764786
H    -3.826851  -1.528245  3.589582
H    -5.091886  -0.453419  4.275150
H    -4.210874  -1.596457  5.314670
Ba    0.832139  2.269881  3.921259
