24
Energy: -249510.9270330  eV PBE+vdW (tier 2 basis)
C    0.876201  1.384915  0.741223
C    0.502354  0.075505  1.354502
O    1.302334  -0.909339  1.328031
H    1.760272  1.776172  1.264944
H    0.077366  2.132092  0.789152
H    1.167590  1.231787  -0.305879
N    -0.694788  -0.035815  1.949651
C    -1.152840  -1.213497  2.693366
C    -1.581531  -2.337778  1.719587
O    -0.707145  -3.197298  1.374127
H    -1.326917  0.760875  1.902059
H    -0.270631  -1.619240  3.211962
C    -2.157204  -0.825576  3.797270
S    -3.766880  -0.112044  3.297286
H    -1.664772  -0.148540  4.506140
H    -2.419892  -1.732139  4.357805
H    -3.352704  1.156736  3.064655
N    -2.819176  -2.350848  1.269407
C    -3.378881  -3.342272  0.352245
H    -3.429860  -1.589321  1.608318
H    -4.413469  -3.546928  0.646032
H    -2.794645  -4.264706  0.401872
H    -3.373582  -2.956307  -0.675665
Ba    1.697799  -3.284437  0.976913
