24
Energy: -249510.5732493  eV PBE+vdW (tier 2 basis)
C    0.449038  -0.597024  0.238855
C    0.062291  -0.122478  1.606815
O    0.888936  -0.226939  2.569556
H    1.270645  0.038856  -0.122561
H    -0.370914  -0.556998  -0.485422
H    0.839966  -1.620691  0.290551
N    -1.161908  0.390257  1.743526
C    -1.842921  1.152993  2.788782
C    -1.474811  0.873114  4.238073
O    -1.095631  -0.267594  4.647206
H    -1.753816  0.402846  0.895564
H    -1.659513  2.220307  2.588428
C    -3.382611  0.892210  2.635979
S    -3.987541  0.972138  0.922690
H    -3.944720  1.586338  3.269139
H    -3.611269  -0.128155  2.971177
H    -3.905442  2.317835  0.779232
N    -1.652969  1.863956  5.112337
C    -2.075794  3.250801  4.881586
H    -1.536744  1.583620  6.084977
H    -1.886734  3.815724  5.798731
H    -3.147114  3.314695  4.653989
H    -1.495208  3.711899  4.074511
Ba    1.024091  -1.492721  4.608181
