24
Energy: -249511.0695506  eV PBE+vdW (tier 2 basis)
C    -0.056666  1.086117  2.072519
C    -0.269473  -0.353788  1.731793
O    0.695020  -1.162842  1.687546
H    -0.981061  1.671224  2.113733
H    0.615082  1.531627  1.325910
H    0.455928  1.150722  3.041804
N    -1.531645  -0.759239  1.475036
C    -1.967564  -2.121006  1.122972
C    -1.372252  -3.187432  2.067722
O    -0.395370  -3.905899  1.714628
H    -2.255101  -0.045872  1.500881
H    -3.050612  -2.121802  1.314790
C    -1.852324  -2.485575  -0.369508
S    -0.244428  -2.088786  -1.181310
H    -2.613600  -1.922764  -0.922745
H    -2.058448  -3.555848  -0.486670
H    -0.437300  -2.866127  -2.273304
N    -1.948300  -3.357556  3.253668
C    -3.110141  -2.660755  3.816315
H    -1.539170  -4.103402  3.815900
H    -2.938562  -1.579459  3.870536
H    -3.264095  -3.030296  4.833742
H    -4.020533  -2.871961  3.239858
Ba    1.847614  -3.226280  0.931183
