24
Energy: -249510.9486935  eV PBE+vdW (tier 2 basis)
C    0.064478  0.299699  -0.114765
C    -0.018924  0.255023  1.376153
O    1.008260  0.463865  2.092381
H    0.852610  -0.380774  -0.461612
H    0.362853  1.314275  -0.416066
H    -0.878090  0.045420  -0.610210
N    -1.208708  0.003142  1.937583
C    -1.524182  0.083710  3.371489
C    -1.029580  -1.171772  4.134701
O    0.200027  -1.231179  4.457030
H    -2.006812  -0.158665  1.320024
H    -0.928529  0.910014  3.789913
C    -3.001922  0.456581  3.552302
S    -4.096123  -0.730015  2.661125
H    -3.160501  1.464292  3.149288
H    -3.244905  0.470685  4.621601
H    -5.261268  -0.116706  2.972372
N    -1.889161  -2.123069  4.441189
C    -1.562898  -3.345921  5.174542
H    -2.857296  -2.005477  4.107153
H    -0.703706  -3.168175  5.826701
H    -1.330633  -4.160011  4.475258
H    -2.429863  -3.633224  5.777437
Ba    2.386875  -0.283720  3.936414
