24
Energy: -249511.1001387  eV PBE+vdW (tier 2 basis)
C    -1.209830  -0.381968  0.048712
C    -0.908398  -0.276585  1.511045
O    0.278807  -0.238668  1.926216
H    -2.278761  -0.443041  -0.180216
H    -0.702065  -1.264507  -0.361892
H    -0.784409  0.493685  -0.461509
N    -1.958102  -0.208805  2.358791
C    -1.932731  -0.058828  3.822905
C    -0.922542  1.005927  4.296168
O    0.211985  0.679275  4.745702
H    -2.880724  -0.252923  1.934495
H    -2.928034  0.338721  4.073709
C    -1.856324  -1.382332  4.609912
S    -0.471916  -2.555381  4.368318
H    -2.774010  -1.955423  4.428869
H    -1.834496  -1.154626  5.684102
H    -0.828221  -3.018178  3.146018
N    -1.298057  2.280585  4.261117
C    -2.577203  2.848061  3.820488
H    -0.607181  2.931816  4.633512
H    -3.395383  2.560085  4.493837
H    -2.810855  2.551858  2.791425
H    -2.488319  3.937578  3.845877
Ba    1.998766  -0.635326  3.659399
