24
Energy: -249511.1404745  eV PBE+vdW (tier 2 basis)
C    0.559531  0.461816  0.119347
C    -0.483953  0.079543  1.121617
O    -0.180817  -0.595201  2.141538
H    0.182394  1.086126  -0.697128
H    0.987382  -0.458049  -0.304190
H    1.377321  0.987654  0.628656
N    -1.749935  0.472561  0.880299
C    -2.991653  0.155763  1.611068
C    -3.096385  0.919710  2.945467
O    -2.264528  0.746639  3.875047
H    -1.882449  1.019971  0.034626
H    -3.774361  0.553531  0.950146
C    -3.326104  -1.360199  1.694144
S    -2.786611  -2.429411  3.085084
H    -2.916145  -1.847263  0.800593
H    -4.414244  -1.480434  1.644079
H    -3.838817  -2.208021  3.908955
N    -4.118865  1.758444  3.074939
C    -4.375962  2.546993  4.283391
H    -4.748096  1.886957  2.287926
H    -5.316886  3.086711  4.150299
H    -3.565267  3.266982  4.448893
H    -4.456509  1.889117  5.156130
Ba    -0.452039  -0.815936  4.560075
