24
Energy: -249510.0874329  eV PBE+vdW (tier 2 basis)
C    0.267101  0.487683  0.207931
C    0.010036  0.067573  1.617420
O    0.963562  -0.130491  2.427292
H    0.511342  1.560907  0.168681
H    -0.577380  0.291415  -0.459560
H    1.153183  -0.048707  -0.154168
N    -1.263233  -0.086474  2.058422
C    -2.331829  0.883599  1.781713
C    -1.819699  2.274663  2.224730
O    -0.948974  2.332206  3.163029
H    -1.324298  -0.515738  2.982649
H    -2.569896  0.880827  0.710943
C    -3.576855  0.427431  2.589230
S    -5.071006  1.447458  2.464855
H    -3.324401  0.424073  3.660551
H    -3.801318  -0.607828  2.302056
H    -5.506603  0.941393  1.286931
N    -2.247684  3.387030  1.655941
C    -3.159521  3.599907  0.528322
H    -1.875635  4.237495  2.082053
H    -2.687829  4.303388  -0.168022
H    -4.105536  4.018436  0.888771
H    -3.369493  2.662943  0.009333
Ba    1.094958  1.519498  4.278210
