24
Energy: -249510.3808181  eV PBE+vdW (tier 2 basis)
C    0.014629  0.690904  0.305446
C    -0.170656  0.184932  1.699473
O    0.711509  0.386086  2.587293
H    -0.294122  1.745759  0.234786
H    -0.545482  0.114697  -0.438040
H    1.084072  0.653515  0.066981
N    -1.293634  -0.494394  2.036979
C    -2.627870  -0.071510  1.616547
C    -2.998619  1.194640  2.456189
O    -2.119872  1.740627  3.206163
H    -1.251362  -0.911404  2.967896
H    -2.569436  0.242779  0.564397
C    -3.612273  -1.259498  1.723894
S    -5.288073  -0.986240  1.053492
H    -3.774199  -1.534441  2.776042
H    -3.158341  -2.124409  1.225494
H    -4.934698  -0.947000  -0.254603
N    -4.217698  1.671426  2.333804
C    -4.729755  2.853126  3.027979
H    -4.865468  1.102551  1.756209
H    -5.713853  3.091909  2.616163
H    -4.059154  3.705520  2.872198
H    -4.830027  2.660481  4.103733
Ba    0.060516  2.031980  4.311591
