24
Energy: -249510.6437977  eV PBE+vdW (tier 2 basis)
C    -0.131230  0.479249  -0.015384
C    -0.178246  0.403961  1.475162
O    0.767514  0.863631  2.183336
H    -1.000038  0.024532  -0.502277
H    0.782940  -0.009307  -0.377681
H    -0.067834  1.535710  -0.312382
N    -1.251074  -0.156318  2.059475
C    -1.490795  -0.160521  3.512065
C    -0.571687  -1.185460  4.225115
O    0.496622  -0.730542  4.750616
H    -1.998074  -0.487735  1.453439
H    -1.126649  0.804676  3.891858
C    -2.989852  -0.233920  3.834528
S    -3.300979  -0.416349  5.621459
H    -3.475849  -1.094776  3.360077
H    -3.487064  0.664942  3.449556
H    -3.110757  0.883246  5.948189
N    -0.802825  -2.489006  4.247647
C    -1.927640  -3.266155  3.723509
H    -0.108497  -3.013720  4.780031
H    -2.238955  -2.900371  2.740642
H    -2.775396  -3.254231  4.421027
H    -1.593185  -4.300989  3.604044
Ba    2.224548  0.873454  4.141950
