24
Energy: -249510.0492665  eV PBE+vdW (tier 2 basis)
C    -0.400479  0.030511  -0.154316
C    -0.164142  0.060713  1.319610
O    0.687590  0.845747  1.832720
H    -1.060002  0.861397  -0.451377
H    -0.843190  -0.909915  -0.496927
H    0.558458  0.192737  -0.661406
N    -0.884446  -0.744350  2.138928
C    -2.336665  -0.924913  2.015524
C    -2.980316  0.480158  2.066151
O    -2.361370  1.415414  2.685991
H    -0.546444  -0.754555  3.102159
H    -2.570775  -1.420318  1.065452
C    -2.782401  -1.840735  3.188365
S    -4.511158  -2.387644  3.209690
H    -2.530236  -1.368735  4.148688
H    -2.187569  -2.761072  3.109419
H    -5.013367  -1.313957  3.863301
N    -4.139178  0.733225  1.482981
C    -4.989812  -0.101394  0.626916
H    -4.472435  1.687816  1.628762
H    -5.119496  0.404713  -0.337789
H    -5.969107  -0.232965  1.100195
H    -4.552742  -1.089212  0.477439
Ba    -0.286583  2.634466  3.249120
