24
Energy: -249510.7927924  eV PBE+vdW (tier 2 basis)
C    -0.162852  -0.127087  -0.024776
C    -0.143031  0.005323  1.462897
O    0.929889  0.286783  2.077953
H    0.128080  0.837763  -0.464633
H    -1.140015  -0.418138  -0.423788
H    0.590260  -0.860912  -0.339619
N    -1.290942  -0.167738  2.137758
C    -1.474257  0.091742  3.577651
C    -0.937605  -1.099240  4.407560
O    0.301511  -1.129733  4.683659
H    -2.121703  -0.391513  1.594171
H    -0.817705  0.934510  3.836393
C    -2.920466  0.515236  3.869309
S    -3.181665  0.956713  5.621580
H    -3.641499  -0.283353  3.633272
H    -3.188858  1.362958  3.226985
H    -2.792276  2.247506  5.507844
N    -1.765089  -2.064978  4.764026
C    -1.411271  -3.247408  5.549669
H    -2.749869  -1.948545  4.538508
H    -1.780539  -4.145602  5.041834
H    -1.872359  -3.180748  6.543192
H    -0.326039  -3.300174  5.654208
Ba    2.420039  -0.164463  3.943742
