24
Energy: -249510.7962597  eV PBE+vdW (tier 2 basis)
C    -0.085559  0.126608  -0.123514
C    -0.066230  0.085880  1.371449
O    1.027377  -0.067089  1.992531
H    -1.076402  0.320973  -0.546652
H    0.279352  -0.838828  -0.502673
H    0.615411  0.893562  -0.477290
N    -1.239306  0.211637  2.015809
C    -1.532863  0.052893  3.459202
C    -0.939687  1.196726  4.308646
O    0.307841  1.269733  4.522857
H    -2.053180  0.327867  1.418052
H    -2.626375  0.127978  3.524587
C    -1.142139  -1.335149  4.002407
S    -1.412304  -1.493186  5.797220
H    -0.077567  -1.540312  3.836995
H    -1.691550  -2.110678  3.455903
H    -2.740130  -1.749646  5.741158
N    -1.790963  2.089453  4.787449
C    -1.447460  3.222604  5.644747
H    -2.779777  1.942822  4.600956
H    -1.876168  3.071667  6.643418
H    -1.856264  4.143875  5.213946
H    -0.361470  3.300569  5.722405
Ba    2.501415  0.492038  3.831395
