24
Energy: -249510.6894280  eV PBE+vdW (tier 2 basis)
C    0.086407  -1.068826  0.687376
C    -0.392307  -0.013799  1.628935
O    0.403201  0.529624  2.460147
H    0.876328  -0.643225  0.052468
H    -0.708538  -1.468664  0.049969
H    0.542446  -1.889322  1.256860
N    -1.676222  0.354553  1.574694
C    -2.265746  1.456500  2.323086
C    -2.430275  1.089397  3.816496
O    -1.517266  1.489641  4.610813
H    -2.316617  -0.056983  0.875669
H    -1.525520  2.268855  2.354524
C    -3.525064  2.025764  1.586173
S    -4.363179  0.910297  0.402473
H    -3.228106  2.925325  1.039768
H    -4.274437  2.342503  2.319686
H    -3.787519  1.404630  -0.718327
N    -3.444753  0.381826  4.291097
C    -4.579922  -0.236158  3.601343
H    -3.417291  0.260514  5.304089
H    -4.897919  -1.104793  4.186257
H    -4.294206  -0.584216  2.604012
H    -5.425568  0.459746  3.526531
Ba    0.932373  1.562243  4.584890
