24
Energy: -249510.7279083  eV PBE+vdW (tier 2 basis)
C    0.030638  -0.068547  0.015134
C    -0.063209  -0.225909  1.499362
O    0.880137  -0.773592  2.145814
H    -0.834516  0.433785  -0.429480
H    0.137473  -1.064528  -0.437467
H    0.940454  0.493092  -0.234926
N    -1.169032  0.227594  2.108501
C    -1.591629  0.066272  3.513510
C    -0.727042  0.873644  4.497569
O    0.457739  0.519063  4.780927
H    -1.877533  0.618033  1.493363
H    -2.606301  0.484420  3.535973
C    -1.724078  -1.407982  3.959583
S    -2.988629  -2.336963  3.042500
H    -2.059450  -1.420010  5.005678
H    -0.763846  -1.937711  3.919766
H    -2.255106  -2.549618  1.925054
N    -1.305485  1.912773  5.083251
C    -0.689285  2.765839  6.099943
H    -2.254601  2.146352  4.801947
H    -1.431916  2.990053  6.872971
H    -0.346688  3.706287  5.649324
H    0.159099  2.242302  6.546849
Ba    2.339453  -0.857443  4.067141
