24
Energy: -249510.8076878  eV PBE+vdW (tier 2 basis)
C    0.151355  -0.350975  -0.028678
C    -0.073070  -0.235282  1.443052
O    0.767012  0.367214  2.182713
H    -0.657690  -0.872937  -0.549242
H    1.095909  -0.880932  -0.212214
H    0.262921  0.657308  -0.450740
N    -1.180745  -0.781043  1.959888
C    -1.670042  -0.599944  3.331405
C    -0.773151  -1.336117  4.357339
O    0.191553  -0.710972  4.894459
H    -1.917525  -1.053264  1.298625
H    -1.581086  0.466135  3.596091
C    -3.164164  -0.995944  3.403424
S    -4.183688  -0.384414  2.023178
H    -3.576862  -0.680348  4.368504
H    -3.300241  -2.085413  3.333777
H    -4.085720  0.934892  2.318493
N    -1.042013  -2.595520  4.659245
C    -0.294379  -3.413452  5.615804
H    -1.829236  -3.037911  4.192535
H    0.450622  -4.028647  5.094435
H    -0.994968  -4.071510  6.139488
H    0.204001  -2.762684  6.338588
Ba    1.941206  0.864763  4.224829
