24
Energy: -249510.7615430  eV PBE+vdW (tier 2 basis)
C    -0.263412  -0.908162  0.145577
C    -0.078887  -0.232356  1.465650
O    1.040392  -0.283362  2.060461
H    -1.231559  -0.701079  -0.321627
H    -0.172723  -1.993561  0.300328
H    0.542448  -0.612583  -0.537583
N    -1.130660  0.414252  1.989582
C    -1.304125  0.963672  3.347975
C    -0.448167  2.218221  3.601747
O    0.809551  2.141539  3.744066
H    -1.988603  0.345742  1.449656
H    -2.358003  1.269577  3.379056
C    -1.108375  -0.081631  4.472814
S    -2.116027  -1.582312  4.265185
H    -1.312553  0.390272  5.442116
H    -0.070288  -0.435871  4.497807
H    -3.259495  -1.075408  4.783172
N    -1.097274  3.367394  3.728548
C    -0.482515  4.658517  4.038726
H    -2.104271  3.360542  3.587012
H    -1.130602  5.202111  4.734101
H    -0.362202  5.252177  3.123302
H    0.493889  4.493715  4.500450
Ba    2.787357  0.765571  3.340054
