24
Energy: -249509.9991846  eV PBE+vdW (tier 2 basis)
C    -0.102931  0.300529  0.065479
C    -0.111947  0.044896  1.534297
O    0.970478  0.110313  2.199828
H    -1.010632  0.828096  -0.258085
H    -0.040191  -0.647017  -0.493048
H    0.787090  0.890129  -0.177311
N    -1.254162  -0.234864  2.214507
C    -2.288908  -1.204924  1.834847
C    -1.669824  -2.625652  1.973187
O    -0.404590  -2.763459  2.053082
H    -1.114241  -0.179644  3.223522
H    -3.075171  -1.099364  2.598049
C    -2.954705  -0.982232  0.467873
S    -3.613938  0.725452  0.418605
H    -3.784093  -1.690115  0.368739
H    -2.258076  -1.171796  -0.357696
H    -4.348483  0.542988  -0.703344
N    -2.458796  -3.687364  2.032610
C    -3.923405  -3.769678  2.036973
H    -1.962709  -4.577354  2.087670
H    -4.218082  -4.578640  2.713690
H    -4.302518  -3.996542  1.032464
H    -4.370959  -2.839696  2.399571
Ba    1.897783  -2.091471  2.722507
