24
Energy: -249510.6375527  eV PBE+vdW (tier 2 basis)
C    0.015972  -0.011579  0.026512
C    -0.041759  -0.139217  1.515703
O    0.960045  -0.571563  2.160130
H    -0.900316  0.391694  -0.416492
H    0.213838  -1.003808  -0.403073
H    0.862763  0.629521  -0.251745
N    -1.181956  0.215217  2.129094
C    -1.575101  0.039590  3.540164
C    -0.785718  0.947251  4.495139
O    0.430594  0.701103  4.773024
H    -1.934657  0.508132  1.512488
H    -2.625231  0.349357  3.564396
C    -1.549141  -1.430388  4.020653
S    -2.698334  -2.509078  3.116417
H    -1.889514  -1.455428  5.064974
H    -0.537260  -1.853903  4.000318
H    -1.934020  -2.669802  2.011127
N    -1.407152  1.959910  5.083913
C    -2.792921  2.420551  4.918792
H    -0.832187  2.472677  5.752948
H    -3.024277  2.614470  3.865378
H    -2.898210  3.361696  5.465426
H    -3.505192  1.699300  5.338225
Ba    2.443427  -0.468666  4.067361
