27
Energy: -241644.258887 eV PBE+vdW (tier 2 basis)
N    0.298458  -0.798559  -0.137649
C    0.100016  -0.376398  1.251493
C    1.436175  -0.201142  1.990209
O    1.909638  -1.010534  2.765357
H    0.674936  -0.035420  -0.700155
H    0.965834  -1.570122  -0.196177
H    -0.410854  0.597878  1.227665
C    -0.770585  -1.410548  1.976419
C    -1.225894  -0.970771  3.372935
C    -1.778139  -2.115596  4.217009
N    -2.915562  -2.773715  3.536319
C    -3.690722  -3.701128  4.071616
N    -3.622466  -4.215872  5.283854
N    -4.789383  -4.250807  3.290590
H    -0.192604  -2.345652  2.053836
H    -1.623153  -1.600249  1.302264
H    -1.966980  -0.158964  3.310289
H    -0.368949  -0.574184  3.934330
H    -2.130538  -1.747484  5.192715
H    -0.993233  -2.870232  4.387866
H    -3.039345  -2.537214  2.552122
H    -2.830517  -3.878749  5.835884
H    -4.426708  -4.834587  2.528387
H    -5.331322  -3.507590  2.837721
O    2.050284  0.942924  1.621685
H    2.926224  0.966459  2.057092
Ba    -5.646568  -5.672030  5.601949
