27
Energy: -241645.229356 eV PBE+vdW (tier 2 basis)
N    -1.346585  -0.613023  0.193968
C    -0.898957  -0.643323  1.644179
C    0.301363  0.280201  1.787185
O    0.889246  0.357771  2.913872
H    -1.126442  -1.490106  -0.292195
H    -2.398750  -0.427171  0.114518
H    -1.725154  -0.153886  2.203730
C    -0.643534  -2.056321  2.194626
C    -1.740328  -3.133352  2.059245
C    -3.133114  -2.871421  2.674683
N    -4.017339  -2.110977  1.795756
C    -4.025983  -0.743335  1.729381
N    -3.721984  0.110320  2.646457
N    -4.201451  -0.229676  0.411831
H    -0.401636  -1.914283  3.256920
H    0.273268  -2.456224  1.731100
H    -1.324284  -4.033311  2.535652
H    -1.880242  -3.419859  1.003240
H    -3.054585  -2.363556  3.645070
H    -3.616659  -3.834201  2.880059
H    -4.412037  -2.629353  1.017228
H    -3.642077  -0.326782  3.568052
H    -4.553036  0.728439  0.450621
H    -4.799877  -0.792246  -0.194035
O    0.657830  1.006089  0.789282
H    -0.824867  0.151330  -0.271517
Ba    2.388815  2.206719  2.230391
