27
Energy: -241644.716685 eV PBE+vdW (tier 2 basis)
N    -0.319300  0.430182  -0.095100
C    -0.792433  0.302106  1.345862
C    0.193149  1.080405  2.209811
O    -0.112204  1.330379  3.415717
H    -0.457034  -0.455070  -0.604062
H    -0.812842  1.171834  -0.606982
H    -1.800524  0.749870  1.420043
C    -0.826180  -1.178873  1.770490
C    -1.758146  -2.078067  0.942386
C    -3.250790  -1.677228  0.944326
N    -3.791610  -1.420407  2.268507
C    -3.724095  -0.190169  2.909021
N    -3.391721  -0.144212  4.149375
N    -3.988010  0.908430  2.058514
H    -1.150050  -1.178514  2.820908
H    0.197413  -1.587199  1.747352
H    -1.653799  -3.092462  1.355298
H    -1.417316  -2.182438  -0.106287
H    -3.824550  -2.484254  0.468255
H    -3.417562  -0.786886  0.322951
H    -3.707517  -2.181636  2.938682
H    -3.566547  0.773258  4.567647
H    -4.134717  1.767145  2.583911
H    -4.772704  0.755368  1.423699
O    1.326077  1.414689  1.706807
H    0.690529  0.672149  -0.066025
Ba    2.090657  2.289834  4.015023
