27
Energy: -241645.408174 eV PBE+vdW (tier 2 basis)
N    -1.425687  0.408191  -0.137932
C    -1.036098  -0.278091  1.127314
C    0.206410  0.468648  1.632280
O    0.159434  1.702966  1.683667
H    -0.710744  0.243292  -0.853996
H    -2.274116  -0.033412  -0.499215
H    -1.763035  0.032566  1.893724
C    -1.061866  -1.809361  1.123569
C    -2.458072  -2.419284  0.846768
C    -3.650651  -1.942397  1.708535
N    -4.204884  -0.645051  1.277429
C    -4.034907  0.584840  1.822076
N    -4.200988  1.732874  1.178825
N    -3.522993  0.679337  3.101216
H    -0.731487  -2.160036  2.116294
H    -0.355087  -2.216935  0.383302
H    -2.370988  -3.505303  0.990164
H    -2.723730  -2.302105  -0.216508
H    -3.378881  -1.898470  2.771394
H    -4.455327  -2.685401  1.637653
H    -4.641768  -0.651035  0.359717
H    -4.724260  1.607773  0.307026
H    -3.838248  1.513390  3.590096
H    -3.574474  -0.144572  3.693855
O    1.281843  -0.156633  2.054672
H    1.222415  -1.126854  1.949566
Ba    -1.915649  3.048298  0.856153
