27
Energy: -241645.072731 eV PBE+vdW (tier 2 basis)
N    -0.004254  0.648512  0.378534
C    0.086080  0.554147  1.837239
C    1.547423  0.717637  2.301568
O    2.465280  0.913687  1.491761
H    -0.338793  -0.260881  0.036100
H    -3.118773  3.045887  -0.569551
H    -0.403374  1.439649  2.302414
C    -0.581528  -0.703818  2.453773
C    -2.105648  -0.636634  2.648216
C    -2.954831  -0.434637  1.385649
N    -2.869960  0.915506  0.820987
C    -3.766044  1.887193  0.995210
N    -3.627772  3.037688  0.304333
N    -4.794248  1.766970  1.847761
H    -0.147341  -0.932084  3.439964
H    -0.315694  -1.568073  1.822822
H    -2.350704  0.149594  3.380617
H    -2.422103  -1.585609  3.104985
H    -4.007113  -0.671390  1.588128
H    -2.646707  -1.135649  0.596210
H    -1.937617  1.139001  0.409539
H    -4.226508  3.832248  0.493667
H    -5.589794  2.392481  1.802056
H    -4.844315  1.009982  2.516496
O    1.854233  0.737259  3.586849
H    1.079586  0.565879  4.155959
Ba    2.019329  1.266177  -0.936079
