27
Energy: -241645.578365 eV PBE+vdW (tier 2 basis)
N    -1.620777  0.293489  1.905623
C    -0.732253  -0.851651  2.304317
C    0.516638  -0.348836  2.999916
O    1.431006  -1.190175  3.294005
H    -2.579122  -0.165152  1.645092
H    -1.747028  0.942456  2.690511
H    -1.346668  -1.379586  3.066671
C    -0.456557  -1.789660  1.118401
C    -1.678220  -2.136422  0.241162
C    -2.964445  -2.542238  0.970030
N    -3.763292  -1.365334  1.441480
C    -4.269300  -1.408830  2.779171
N    -3.392010  -1.504104  3.720390
N    -5.615861  -1.231102  2.884578
H    -0.035002  -2.707914  1.547318
H    0.329565  -1.364059  0.475956
H    -1.375345  -2.970689  -0.406237
H    -1.905152  -1.312654  -0.455393
H    -2.745923  -3.162818  1.847745
H    -3.589722  -3.139572  0.293639
H    -4.487081  -1.118019  0.767502
H    -3.814692  -1.612211  4.644360
H    -6.035995  -1.187480  3.806106
H    -6.240090  -1.506679  2.134755
O    0.617912  0.889913  3.316026
H    -1.251639  0.825399  1.109610
Ba    2.837251  0.472864  4.458770
