27
Energy: -241645.053664 eV PBE+vdW (tier 2 basis)
N    -0.617044  -0.234802  -0.135881
C    -0.532483  0.086594  1.291732
C    0.784467  0.829810  1.618962
O    1.563936  1.175852  0.717280
H    -0.412126  -1.238664  -0.225872
H    -2.511549  -0.473571  -0.421647
H    -1.296402  0.860151  1.524698
C    -0.799986  -1.091439  2.259147
C    -2.266280  -1.556306  2.280206
C    -2.659424  -2.534521  1.148612
N    -4.030820  -2.357795  0.676410
C    -4.425153  -1.371601  -0.142156
N    -3.541346  -0.494658  -0.635600
N    -5.725945  -1.270779  -0.466310
H    -0.538725  -0.806404  3.290578
H    -0.120819  -1.924559  2.013661
H    -2.918640  -0.671464  2.237854
H    -2.477224  -2.034855  3.244986
H    -2.573595  -3.573509  1.485937
H    -1.992878  -2.443763  0.281878
H    -4.746076  -2.968218  1.055685
H    -3.884564  0.226324  -1.257932
H    -6.061837  -0.554006  -1.096323
H    -6.407407  -1.947527  -0.145775
O    1.080038  1.198944  2.850802
H    0.426775  0.875323  3.500737
Ba    1.012780  0.881950  -1.687320
