27
Energy: -241644.536134 eV PBE+vdW (tier 2 basis)
N    0.753994  -0.780802  0.582603
C    0.247719  0.119643  1.633450
C    1.438463  0.518827  2.520812
O    1.715678  0.018546  3.604808
H    0.032819  -0.924077  -0.126724
H    1.554422  -0.382044  0.089403
H    -0.149547  1.075145  1.232294
C    -0.909314  -0.531156  2.433055
C    -1.000754  -2.069077  2.491673
C    0.217339  -2.859717  2.991175
N    0.738502  -2.347829  4.263205
C    0.826467  -2.919930  5.440600
N    1.274182  -2.362861  6.564722
N    0.476764  -4.315727  5.641515
H    -1.850665  -0.189866  1.981135
H    -0.911789  -0.106128  3.447054
H    -1.222060  -2.469352  1.492537
H    -1.873998  -2.314475  3.114781
H    1.029743  -2.773093  2.255753
H    -0.047827  -3.921195  3.081826
H    1.111448  -1.362462  4.150367
H    1.466776  -1.362134  6.474160
H    -0.536143  -4.408018  5.773464
H    0.702350  -4.881843  4.818980
O    2.237945  1.484596  2.060122
H    1.891094  1.883774  1.240372
Ba    1.827287  -4.191182  8.134583
