27
Energy: -241646.240305 eV PBE+vdW (tier 2 basis)
N    0.069390  -1.304678  -0.212407
C    -0.284050  -0.382665  0.947564
C    1.083873  0.051471  1.524901
O    1.990216  -0.851052  1.517513
H    0.289799  -0.784798  -1.072385
H    0.930348  -1.809301  0.088374
H    -0.839380  0.474134  0.548494
C    -1.111657  -1.194298  1.967140
C    -1.922852  -0.420098  3.025172
C    -1.202510  0.546798  3.969216
N    -0.033266  -0.061091  4.614941
C    0.772557  0.552053  5.528601
N    2.083940  0.328344  5.464529
N    0.184931  1.376700  6.420946
H    -0.450100  -1.940464  2.437236
H    -1.854413  -1.780571  1.401777
H    -2.445525  -1.183426  3.618949
H    -2.708567  0.160219  2.521148
H    -1.936112  0.851639  4.727660
H    -0.891104  1.456052  3.432852
H    0.405722  -0.850084  4.155703
H    2.534039  0.539915  6.360070
H    0.748294  1.911395  7.070129
H    -0.804171  1.307762  6.630210
O    1.220756  1.198305  2.016347
H    -0.679439  -1.976705  -0.426789
Ba    3.437101  0.543844  3.268889
