27
Energy: -241646.172613 eV PBE+vdW (tier 2 basis)
N    1.059047  -0.874400  -0.294187
C    0.735727  -0.487054  1.109895
C    1.829227  -0.966603  2.055037
O    2.715024  -1.773055  1.744085
H    0.211306  -1.250983  -0.724334
H    1.250380  -0.018380  -0.821589
H    0.737998  0.610934  1.187257
C    -0.664848  -0.940869  1.600912
C    -0.903153  -2.396926  2.035236
C    -0.945915  -3.499364  0.971235
N    0.405225  -3.947051  0.582340
C    0.622336  -4.910208  -0.411960
N    1.881734  -5.066800  -0.768533
N    -0.443044  -5.512804  -0.966705
H    -1.386284  -0.652564  0.819938
H    -0.907463  -0.306253  2.463692
H    -1.887217  -2.403969  2.524337
H    -0.201153  -2.687271  2.835578
H    -1.471304  -3.148164  0.070715
H    -1.528320  -4.340854  1.383714
H    0.985242  -4.143900  1.397847
H    2.037234  -5.890877  -1.352371
H    -0.322875  -6.148927  -1.747444
H    -1.348903  -5.524627  -0.511630
O    1.724509  -0.437981  3.258001
H    2.442127  -0.761286  3.843373
Ba    3.139618  -2.808831  -0.581558
