27
Energy: -241644.455489 eV PBE+vdW (tier 2 basis)
N    -1.691624  -0.173857  -0.383377
C    -1.127945  -0.164192  0.971172
C    0.338811  -0.572262  0.822892
O    0.863469  -1.601283  1.241689
H    -1.137226  0.405053  -1.015402
H    -2.633354  0.220149  -0.378892
H    -1.109218  0.841520  1.444340
C    -1.976883  -1.098223  1.853129
C    -1.745379  -1.021163  3.374594
C    -0.585537  -1.794167  4.009347
N    -0.875473  -3.246429  4.237243
C    -0.827213  -4.221475  3.177403
N    -1.519922  -5.306946  3.493242
N    -0.169862  -3.969160  2.061246
H    -1.909099  -2.121214  1.458927
H    -3.016601  -0.787340  1.673099
H    -2.678460  -1.320606  3.892564
H    -1.614857  0.035530  3.655484
H    -0.403192  -1.393076  5.014617
H    0.348885  -1.666422  3.448267
H    -0.234282  -3.587881  4.960689
H    -1.408284  -6.085757  2.840418
H    -0.205937  -4.641767  1.299503
H    0.268660  -3.043813  1.836703
O    1.022557  0.348750  0.149126
H    1.947088  0.046664  0.029753
Ba    -3.262132  -4.474432  5.073696
