27
Energy: -241645.539213 eV PBE+vdW (tier 2 basis)
N    -0.058040  0.654969  0.462813
C    0.063399  -0.398757  1.510114
C    1.533270  -0.832211  1.496250
O    2.392685  0.054538  1.557567
H    0.113846  0.246313  -0.461259
H    -1.027454  0.982266  0.436717
H    0.004329  0.129570  2.475039
C    -1.069054  -1.429987  1.559708
C    -2.437113  -0.783275  1.879608
C    -2.567707  -0.053035  3.231994
N    -1.713420  1.138493  3.390830
C    -1.812789  2.335388  2.743216
N    -0.718416  3.089269  2.636180
N    -3.008279  2.641188  2.183516
H    -0.842775  -2.171984  2.344255
H    -1.147043  -1.975084  0.605643
H    -3.193270  -1.580634  1.877090
H    -2.744165  -0.109433  1.063654
H    -2.297529  -0.726068  4.056061
H    -3.625345  0.199383  3.400420
H    -1.029613  1.130280  4.138318
H    -0.988407  4.065166  2.470900
H    -3.111634  3.506441  1.666051
H    -3.867055  2.247968  2.555646
O    1.899159  -2.093811  1.472475
H    1.141212  -2.707856  1.406305
Ba    1.659433  2.572134  1.596915
