27
Energy: -241644.680306 eV PBE+vdW (tier 2 basis)
N    -0.684653  -1.489858  0.275948
C    -0.828560  -0.135850  0.962376
C    0.451119  -0.573095  0.352905
O    0.987888  -0.011681  -0.736386
H    -1.732446  -2.964329  0.911102
H    -1.053665  -1.447547  -0.678986
H    -1.352286  0.624158  0.375318
C    -1.103022  -0.105848  2.444592
C    -2.577680  -0.135831  2.882588
C    -3.281612  -1.499872  2.893546
N    -3.973497  -1.881326  1.645768
C    -3.783443  -3.024679  0.965553
N    -2.566019  -3.581171  0.921948
N    -4.819450  -3.594235  0.328563
H    -0.662053  0.827804  2.827285
H    -0.561217  -0.919533  2.955131
H    -3.168214  0.586046  2.297671
H    -2.614277  0.232132  3.917462
H    -4.050603  -1.494304  3.678837
H    -2.583071  -2.307484  3.144642
H    -4.858590  -1.411919  1.474624
H    -2.463929  -4.525420  0.568619
H    -4.675073  -4.289090  -0.394420
H    -5.777286  -3.391321  0.590078
O    1.565699  -1.033905  1.173944
H    1.274752  -1.663174  1.853990
Ba    3.271234  0.003869  -0.596987
