27
Energy: -241645.262295 eV PBE+vdW (tier 2 basis)
N    -0.364121  0.034677  -0.150078
C    -0.103096  -0.432492  1.251285
C    1.159324  -1.334955  1.232432
O    2.096616  -0.931090  0.426520
H    -0.875539  -0.710345  -0.638229
H    -1.033338  0.809724  -0.112121
H    0.193215  0.465483  1.820845
C    -1.324484  -1.075780  1.921151
C    -1.210054  -1.209441  3.463081
C    -1.496269  -2.610650  3.991330
N    -0.420714  -3.603242  3.549969
C    -0.944919  -4.819822  2.856595
N    -1.455331  -4.576619  1.720741
N    -0.738340  -5.961687  3.557284
H    -1.503662  -2.061833  1.461861
H    -2.206228  -0.463243  1.687384
H    -1.933281  -0.541367  3.949304
H    -0.223614  -0.879123  3.821826
H    -2.447473  -2.994270  3.607453
H    -1.527729  -2.625868  5.086532
H    0.178821  -3.850800  4.343949
H    -1.847395  -5.399461  1.257406
H    -1.067002  -6.841398  3.174681
H    -0.489432  -5.972980  4.539262
O    1.261932  -2.335994  1.946356
H    0.223816  -3.095877  2.842897
Ba    2.117004  0.450939  -1.423750
