27
Energy: -241644.754493 eV PBE+vdW (tier 2 basis)
N    -0.525777  1.329290  1.467105
C    -0.079238  0.147275  2.205224
C    0.999391  -0.567815  1.391413
O    0.810798  -1.562844  0.680368
H    0.183016  2.061312  1.437396
H    -0.811063  1.114521  0.511024
H    0.385401  0.501227  3.137683
C    -1.303792  -0.722064  2.528989
C    -1.146148  -1.840831  3.574783
C    -0.215750  -3.005749  3.236443
N    -0.608114  -3.626064  1.921775
C    0.233430  -4.713684  1.514274
N    -0.170301  -5.885105  1.957741
N    1.263902  -4.422393  0.725151
H    -1.722320  -1.115594  1.587224
H    -2.059664  -0.021035  2.906224
H    -2.159692  -2.231005  3.792041
H    -0.799185  -1.414892  4.528267
H    -0.253728  -3.779610  4.022362
H    0.834976  -2.683067  3.192139
H    -0.518269  -2.858056  1.231992
H    0.447920  -6.669701  1.742663
H    1.861124  -5.145172  0.334415
H    1.455496  -3.442961  0.489809
O    2.175845  0.055165  1.462877
H    2.803428  -0.340298  0.824295
Ba    -2.566492  -5.397667  2.594561
