27
Energy: -241645.722039 eV PBE+vdW (tier 2 basis)
N    0.020253  1.130651  1.087170
C    -0.132726  0.614622  2.501376
C    1.280435  0.881265  3.126131
O    1.368711  0.805950  4.407868
H    -0.399230  2.056645  0.946199
H    -0.345116  0.495055  0.369404
H    -0.886877  1.219899  3.018355
C    -0.541229  -0.878113  2.492916
C    -0.258271  -1.526100  3.848441
C    -0.714204  -2.960302  4.139498
N    -0.106320  -3.348870  5.427427
C    -0.480249  -2.748832  6.612083
N    0.411400  -2.049680  7.306325
N    -1.771138  -2.918431  6.967446
H    0.027721  -1.408026  1.712145
H    -1.606998  -0.952624  2.231103
H    -0.672475  -0.884740  4.642565
H    0.835806  -1.533418  3.973722
H    -0.375162  -3.674846  3.379336
H    -1.805881  -3.043280  4.199455
H    0.901098  -3.477707  5.373943
H    0.110028  -1.963992  8.284259
H    -2.293802  -3.708823  6.604927
H    -2.153782  -2.452104  7.781196
O    2.191803  1.121549  2.328593
H    1.089318  1.218301  1.030535
Ba    2.031034  -0.110862  6.522277
