27
Energy: -241646.442567 eV PBE+vdW (tier 2 basis)
N    0.586208  0.064787  1.159931
C    -0.800337  0.008759  1.791423
C    -0.579953  -0.514549  3.221751
O    0.541704  -1.083265  3.466245
H    0.968523  1.017968  1.141446
H    1.178776  -0.521363  1.798102
H    -1.179958  1.035856  1.853516
C    -1.782202  -0.830487  0.954502
C    -1.406541  -2.293266  0.614448
C    -2.057243  -3.391583  1.463572
N    -1.509029  -3.445156  2.815794
C    -2.074757  -4.075344  3.885530
N    -1.517499  -3.892270  5.080554
N    -3.193130  -4.800224  3.675744
H    -1.953911  -0.276740  0.019991
H    -2.741018  -0.794033  1.490674
H    -0.314235  -2.455392  0.605338
H    -1.720878  -2.484747  -0.419860
H    -1.918765  -4.353594  0.941126
H    -3.138438  -3.202443  1.532894
H    -0.510059  -3.290734  2.904530
H    -1.859353  -4.589369  5.746531
H    -3.704589  -5.187295  4.459147
H    -3.452594  -5.136214  2.756287
O    -1.510315  -0.373792  4.052507
H    0.611560  -0.305767  0.202236
Ba    -0.392747  -1.739812  5.937370
