27
Energy: -241645.150514 eV PBE+vdW (tier 2 basis)
N    -0.083075  -0.629056  0.037198
C    0.097167  -0.401569  1.488364
C    1.567023  -0.445434  1.921970
O    1.876446  -0.015360  3.087260
H    0.137140  0.217769  -0.491765
H    -1.621439  -1.232684  -0.180324
H    -0.261180  0.609537  1.734924
C    -0.716925  -1.436548  2.301294
C    -2.219625  -1.138284  2.474031
C    -3.038083  -0.744112  1.238603
N    -2.674845  -1.508352  -0.007754
C    -2.847770  -3.021762  0.032425
N    -3.635029  -3.651261  0.786533
N    -1.958467  -3.611433  -0.825903
H    -0.294238  -1.509113  3.311611
H    -0.569461  -2.425278  1.837770
H    -2.346692  -0.312039  3.188623
H    -2.666750  -2.018014  2.954282
H    -2.873899  0.308379  0.971146
H    -4.112458  -0.858951  1.427847
H    -3.234843  -1.146416  -0.791222
H    -4.204215  -3.098126  1.426079
H    -2.112075  -4.609145  -0.954980
H    -1.684971  -3.124183  -1.673225
O    2.454318  -0.919664  1.131013
H    0.597948  -1.330946  -0.270711
Ba    4.284027  -0.470303  2.798288
