27
Energy: -241645.028918 eV PBE+vdW (tier 2 basis)
N    -0.337583  -0.355501  -0.152280
C    -0.126358  -0.277299  1.300896
C    1.387133  -0.169606  1.611957
O    2.141363  0.393764  0.801084
H    -0.054586  -1.303970  -0.437396
H    -2.114432  -0.802508  -0.342361
H    -0.491705  0.716382  1.631917
C    -0.900332  -1.292754  2.172835
C    -0.768042  -2.785205  1.827048
C    -1.652444  -3.300816  0.675183
N    -3.075960  -3.000108  0.835691
C    -3.760796  -2.042076  0.187866
N    -3.132344  -1.067795  -0.477072
N    -5.105138  -2.082536  0.218959
H    -1.960752  -1.002761  2.151601
H    -0.634852  -1.142906  3.234620
H    -1.019813  -3.364978  2.726719
H    0.273922  -3.056383  1.590967
H    -1.554828  -4.392737  0.612729
H    -1.345890  -2.909727  -0.301188
H    -3.610875  -3.605783  1.450090
H    -3.687961  -0.471365  -1.078823
H    -5.604896  -2.919937  0.492612
H    -5.662977  -1.293290  -0.081637
O    1.914152  -0.611637  2.735744
H    1.240531  -1.030110  3.306796
Ba    1.237626  1.157163  -1.411072
