27
Energy: -241645.844196 eV PBE+vdW (tier 2 basis)
N    -0.045346  -0.622163  0.769792
C    0.352123  -0.014226  2.062844
C    1.876338  -0.141785  2.172156
O    2.457167  -1.129941  1.713384
H    0.132187  0.056295  0.022037
H    -1.058287  -0.753275  0.761947
H    0.054953  1.047463  2.115138
C    -0.222678  -0.754548  3.297168
C    -1.753607  -0.847663  3.454690
C    -2.455496  -2.055562  2.792957
N    -1.772273  -3.322652  3.060650
C    -0.960245  -3.951332  2.183195
N    -0.940835  -3.800950  0.875700
N    0.064304  -4.750493  2.697793
H    0.173361  -0.233933  4.180376
H    0.216972  -1.763887  3.341818
H    -2.249428  0.072301  3.109513
H    -1.958803  -0.895164  4.533508
H    -2.544354  -1.941323  1.705939
H    -3.485771  -2.123223  3.164328
H    -1.825564  -3.683554  4.009575
H    -1.806353  -3.402372  0.508240
H    0.114704  -5.675751  2.273103
H    0.157093  -4.796354  3.710790
O    2.576640  0.766294  2.819549
H    2.041395  1.530480  3.110495
Ba    1.491909  -3.074062  0.322046
