27
Energy: -241645.268208 eV PBE+vdW (tier 2 basis)
N    1.115135  0.037385  -0.069607
C    1.075214  -0.702674  1.205487
C    2.451457  -1.201732  1.673157
O    2.540771  -1.769493  2.817561
H    -0.480805  0.475514  -0.434636
H    1.773502  0.818522  -0.013108
H    0.739697  -0.005030  1.991936
C    0.070565  -1.872418  1.150846
C    -1.422063  -1.498623  1.096184
C    -1.975314  -0.964804  -0.222637
N    -1.572045  0.475091  -0.483617
C    -2.071189  1.502909  0.514172
N    -1.290269  2.268722  1.152303
N    -3.416428  1.457545  0.686979
H    0.225951  -2.473092  2.056077
H    0.326554  -2.525837  0.299398
H    -1.677511  -0.809197  1.916323
H    -1.992854  -2.414820  1.304082
H    -3.069040  -1.019710  -0.229428
H    -1.605512  -1.541365  -1.081831
H    -1.859213  0.753513  -1.431626
H    -0.301550  2.146114  0.940217
H    -3.805283  2.181599  1.284764
H    -4.035707  1.105413  -0.033273
O    3.482504  -1.031280  0.935052
H    1.487010  -0.566339  -0.809014
Ba    4.988277  -2.054589  2.662063
