27
Energy: -241645.09064 eV PBE+vdW (tier 2 basis)
N    0.515192  -0.219469  0.338167
C    0.179114  -0.565130  1.758548
C    1.378312  -1.343414  2.371359
O    2.544682  -0.941072  1.960349
H    0.293295  -1.034687  -0.245590
H    -0.140927  0.499337  0.017718
H    0.148193  0.393899  2.304358
C    -1.168698  -1.282987  1.923147
C    -1.721411  -1.211518  3.356440
C    -2.753429  -2.301004  3.695810
N    -2.373935  -3.680008  3.337027
C    -1.446113  -4.495632  3.916874
N    -1.228063  -5.742024  3.870352
N    -0.400334  -3.769517  4.711853
H    -1.048337  -2.334193  1.618379
H    -1.899882  -0.836807  1.232406
H    -2.217958  -0.244116  3.521748
H    -0.893235  -1.230059  4.077513
H    -3.679364  -2.110447  3.139869
H    -3.025800  -2.232445  4.761584
H    -3.076988  -4.193372  2.815435
H    -1.913681  -6.288853  3.343627
H    0.204742  -4.519527  5.076559
H    -0.788331  -3.246761  5.507233
O    1.221665  -2.250135  3.191746
H    0.184316  -3.114118  4.102118
Ba    3.286330  0.297115  0.156150
