27
Energy: -241646.246723 eV PBE+vdW (tier 2 basis)
N    -1.038704  0.816935  -0.269943
C    -0.595462  0.578012  1.143931
C    0.796912  1.215336  1.046942
O    0.877737  2.469767  1.266867
H    -0.977331  -0.052345  -0.803884
H    -2.015294  1.112494  -0.295442
H    -1.211814  1.205775  1.799239
C    -0.641306  -0.880584  1.597789
C    -0.240649  -1.041250  3.072424
C    -0.508240  -2.434045  3.658899
N    0.357365  -3.507127  3.147687
C    1.440391  -4.004013  3.760372
N    1.960303  -5.170796  3.348105
N    2.019917  -3.350554  4.775716
H    0.020708  -1.476695  0.948799
H    -1.669133  -1.251169  1.454162
H    -0.817887  -0.331879  3.685682
H    0.819669  -0.772837  3.207085
H    -1.543491  -2.740499  3.454353
H    -0.412562  -2.416823  4.752843
H    0.076456  -3.965515  2.287441
H    1.418515  -5.824541  2.796029
H    2.682850  -3.814792  5.384994
H    1.781313  -2.392744  4.995928
O    1.692265  0.596553  0.381353
H    2.875447  -5.476551  3.656617
Ba    1.441043  2.612178  -1.122593
