24
Energy: -240679.859505 eV PBE+vdW (tier 2 basis)
C    -0.030158  -1.289523  0.413789
C    -0.163901  -1.016589  1.873452
O    0.681108  -1.517155  2.706277
H    -0.116997  -2.372912  0.247416
H    0.968587  -0.990511  0.069361
H    -0.789219  -0.775186  -0.183451
N    -1.157124  -0.264035  2.302771
C    -1.549814  0.023278  3.675925
C    -3.017531  0.579412  3.486710
O    -3.353090  0.897815  2.346713
H    -1.873631  0.134230  1.658736
H    -1.567484  -0.903206  4.270370
C    -0.692290  1.081845  4.374039
O    0.505096  0.499668  5.019844
H    -1.273529  1.568087  5.166073
H    -0.368664  1.843613  3.652775
H    0.738854  1.120592  5.732260
N    -3.815742  0.686361  4.561296
C    -3.582701  0.282148  5.942321
H    -4.728610  1.083252  4.341976
H    -4.514000  -0.118867  6.356909
H    -3.266550  1.128352  6.569586
H    -2.832396  -0.514460  6.000312
Ba    2.161783  -1.501207  4.492539
