24
Energy: -240680.463613 eV PBE+vdW (tier 2 basis)
C    0.259655  -0.319276  0.101241
C    0.015352  -0.019604  1.544524
O    0.986877  0.225654  2.321722
H    -0.656777  -0.383380  -0.494221
H    0.788241  -1.281986  0.036811
H    0.922486  0.441940  -0.328047
N    -1.252841  -0.023963  1.979457
C    -1.760017  -0.004931  3.366392
C    -1.574516  1.348106  4.070320
O    -0.433402  1.731976  4.466510
H    -1.946008  -0.285230  1.283902
H    -2.836260  -0.190583  3.255491
C    -1.215896  -1.171221  4.217797
O    -1.382273  -2.335679  3.446550
H    -1.781879  -1.190667  5.163880
H    -0.149723  -1.008689  4.474308
H    -1.456106  -3.114076  4.021756
N    -2.668589  2.066615  4.280044
C    -2.715302  3.355013  4.971907
H    -3.549350  1.702491  3.925074
H    -1.823903  3.465440  5.593918
H    -3.609794  3.386534  5.602620
H    -2.761511  4.175546  4.244250
Ba    1.974534  1.386969  4.174792
