24
Energy: -240679.524258 eV PBE+vdW (tier 2 basis)
C    -0.079674  0.537507  0.136526
C    -0.244596  0.067872  1.541109
O    0.772958  -0.106421  2.293010
H    -1.032249  0.697585  -0.378933
H    0.504161  -0.211415  -0.418431
H    0.501306  1.468823  0.123525
N    -1.469324  -0.185105  2.010722
C    -1.730075  -0.812069  3.308523
C    -2.807558  -1.953944  3.332537
O    -2.496893  -2.941521  3.983444
H    -2.249717  -0.046150  1.373439
H    -0.837958  -1.407680  3.543118
C    -1.981106  0.161180  4.457583
O    -0.702137  0.726675  4.926428
H    -2.439507  -0.383968  5.293161
H    -2.632466  0.990312  4.152124
H    -0.924962  1.396814  5.597087
N    -3.992302  -1.799219  2.699895
C    -4.541118  -0.652303  1.986077
H    -4.584492  -2.625308  2.772197
H    -4.281474  -0.658743  0.914584
H    -4.238647  0.298159  2.444321
H    -5.633646  -0.689651  2.050128
Ba    1.777473  -0.068432  4.435830
