24
Energy: -240679.926039 eV PBE+vdW (tier 2 basis)
C    0.751266  -0.571372  0.762241
C    0.010025  -0.624454  2.063294
O    0.367632  -1.316638  3.023616
H    1.717544  -0.077544  0.938536
H    0.220511  -0.030804  -0.029130
H    0.970927  -1.592956  0.431064
N    -1.125810  0.152909  2.171340
C    -1.776794  0.363089  3.458274
C    -2.657289  -0.828923  3.906569
O    -3.895671  -0.645694  4.212537
H    -1.464594  0.648042  1.352106
H    -0.976214  0.449999  4.214879
C    -2.551538  1.682732  3.395636
O    -3.147558  2.045415  4.680689
H    -3.377056  1.622837  2.671709
H    -1.879259  2.486940  3.073452
H    -2.594303  2.722629  5.104295
N    -2.057954  -1.989920  3.982651
C    -2.672459  -3.258232  4.357184
H    -1.035765  -1.954291  3.732242
H    -2.315901  -3.566388  5.348666
H    -2.375935  -4.023302  3.630812
H    -3.761405  -3.165446  4.365069
Ba    -5.360406  0.787371  5.360267
