24
Energy: -240680.816574 eV PBE+vdW (tier 2 basis)
C    -0.676447  -1.135734  0.407494
C    -0.424341  -0.338405  1.645015
O    0.738833  0.094229  1.917014
H    -1.710020  -1.485676  0.319953
H    0.002938  -1.997292  0.378153
H    -0.437322  -0.510366  -0.464657
N    -1.455519  -0.075243  2.457001
C    -1.406671  0.793354  3.639041
C    -0.756863  0.055498  4.833149
O    0.510467  0.085040  4.949056
H    -2.367772  -0.476820  2.242610
H    -0.743769  1.640659  3.412268
C    -2.807875  1.353036  3.899226
O    -3.676971  0.228577  4.073195
H    -3.113181  1.965970  3.036701
H    -2.784071  1.998339  4.792135
H    -4.599555  0.526480  4.142397
N    -1.546653  -0.583109  5.673942
C    -1.108718  -1.328240  6.852142
H    -2.549061  -0.557752  5.447604
H    -1.755210  -1.069693  7.697867
H    -0.074526  -1.067798  7.088774
H    -1.185500  -2.407285  6.665624
Ba    2.502807  0.343232  3.562295
