24
Energy: -240681.003726 eV PBE+vdW (tier 2 basis)
C    -0.341985  -1.548867  0.324039
C    -0.570726  -0.915084  1.660284
O    -0.217519  -1.494449  2.718030
H    0.733490  -1.737113  0.202072
H    -0.698461  -0.948057  -0.518850
H    -0.840148  -2.527358  0.304108
N    -1.159329  0.301532  1.677084
C    -1.482830  1.150267  2.838138
C    -0.260627  1.430255  3.745432
O    -0.011538  0.702679  4.743762
H    -1.408266  0.685373  0.769910
H    -1.774418  2.116163  2.399103
C    -2.740793  0.736240  3.616226
O    -2.641740  -0.572369  4.237062
H    -3.585097  0.727993  2.913670
H    -2.934705  1.496177  4.388710
H    -3.549259  -0.891664  4.374460
N    0.479492  2.487342  3.431171
C    1.667480  2.927155  4.164649
H    0.210217  3.038845  2.620515
H    1.618109  4.011946  4.307788
H    2.575126  2.680634  3.599126
H    1.692502  2.430455  5.137199
Ba    -0.389379  -1.708282  5.160624
