24
Energy: -240680.590059 eV PBE+vdW (tier 2 basis)
C    -0.111844  -0.859118  0.212295
C    -0.209406  -0.144673  1.522029
O    0.662075  0.709925  1.862293
H    0.885619  -1.301586  0.099971
H    -0.223301  -0.116899  -0.592004
H    -0.871192  -1.636859  0.079881
N    -1.254240  -0.426020  2.316871
C    -1.658273  0.292449  3.529682
C    -0.864082  -0.197515  4.765420
O    0.407107  -0.118078  4.736474
H    -1.893487  -1.146633  1.987870
H    -1.380847  1.351547  3.403775
C    -3.194198  0.193222  3.607763
O    -3.611791  0.770831  4.836020
H    -3.501706  -0.868664  3.538488
H    -3.613304  0.726088  2.740281
H    -4.569070  0.936249  4.815027
N    -1.522444  -0.655105  5.810208
C    -0.905423  -1.129724  7.047506
H    -2.537097  -0.497592  5.803765
H    -0.856549  -0.317796  7.785449
H    0.101833  -1.499401  6.840991
H    -1.517856  -1.940642  7.454617
Ba    2.266475  1.020990  3.660330
