24
Energy: -240680.371279 eV PBE+vdW (tier 2 basis)
C    0.086701  -0.349677  -0.023214
C    -0.102513  0.007891  1.415378
O    0.863116  0.471597  2.092788
H    0.559265  0.487267  -0.552082
H    -0.842418  -0.624800  -0.532654
H    0.782420  -1.200040  -0.076926
N    -1.316815  -0.182080  1.953023
C    -1.719233  -0.138742  3.373095
C    -1.690219  1.273811  3.970242
O    -0.590442  1.815451  4.303188
H    -1.997412  -0.618154  1.337338
H    -2.756162  -0.491800  3.364284
C    -0.942235  -1.143265  4.248161
O    -1.016359  -2.379994  3.582056
H    -1.411760  -1.156861  5.246096
H    0.110019  -0.822312  4.382960
H    -0.915596  -3.110634  4.213107
N    -2.834736  1.911572  4.173499
C    -4.204607  1.475097  3.870089
H    -2.732862  2.825272  4.615959
H    -4.510283  0.643918  4.517622
H    -4.307091  1.193851  2.815970
H    -4.872969  2.319305  4.060415
Ba    1.807191  1.840329  3.829605
