24
Energy: -240679.626136 eV PBE+vdW (tier 2 basis)
C    -1.006823  -2.380122  1.102732
C    -0.634931  -1.504950  2.251064
O    0.494039  -1.638400  2.839223
H    -0.254414  -2.282471  0.308412
H    -1.993852  -2.149222  0.689075
H    -0.992760  -3.428606  1.432236
N    -1.486099  -0.573536  2.672492
C    -1.238003  0.322572  3.810114
C    -2.540879  1.147001  4.113474
O    -2.505172  2.366948  4.028313
H    -2.368475  -0.474338  2.173700
H    -0.992415  -0.297203  4.688228
C    -0.075806  1.298036  3.563149
O    1.095169  0.976635  4.397197
H    -0.429171  2.310063  3.802304
H    0.246753  1.281638  2.515785
H    1.224431  1.711794  5.019774
N    -3.654828  0.447502  4.433937
C    -3.821376  -0.971331  4.734566
H    -4.467654  1.046658  4.571337
H    -4.525995  -1.077504  5.566692
H    -2.874869  -1.424366  5.050411
H    -4.220485  -1.532712  3.877547
Ba    2.527614  -1.133083  3.949234
