24
Energy: -240679.909613 eV PBE+vdW (tier 2 basis)
C    -0.371741  1.388153  -0.297998
C    -0.859101  0.425038  0.742402
O    -0.471243  0.455107  1.918377
H    -0.506311  2.410857  0.075410
H    -0.863327  1.284908  -1.271146
H    0.709284  1.238544  -0.426544
N    -1.787924  -0.507262  0.333524
C    -2.244843  -1.666525  1.093892
C    -2.960331  -1.416525  2.431939
O    -3.825846  -2.307254  2.782478
H    -2.103144  -0.459589  -0.629931
H    -3.010795  -2.142905  0.465122
C    -1.090786  -2.679053  1.270797
O    -1.609002  -3.958589  1.788700
H    -0.331644  -2.293365  1.963236
H    -0.638432  -2.861814  0.288098
H    -0.874894  -4.592837  1.707026
N    -2.646592  -0.385110  3.168336
C    -3.261705  -0.029550  4.442662
H    -1.795575  0.138128  2.824976
H    -4.212704  -0.554199  4.565138
H    -3.434940  1.052074  4.456898
H    -2.585097  -0.281627  5.270019
Ba    -3.920308  -4.644609  2.917589
