24
Energy: -240679.627632 eV PBE+vdW (tier 2 basis)
C    -1.100787  -2.344934  0.991256
C    -0.772656  -1.527334  2.194195
O    0.303301  -1.736096  2.855520
H    -0.292883  -2.250239  0.252933
H    -2.047354  -2.057725  0.522146
H    -1.150396  -3.404177  1.280086
N    -1.607896  -0.569599  2.586310
C    -1.407829  0.284520  3.767867
C    -2.686054  1.179128  3.938837
O    -2.598240  2.382701  3.739383
H    -2.447737  -0.412981  2.030899
H    -1.284288  -0.366581  4.648528
C    -0.174450  1.195517  3.649304
O    0.911026  0.769754  4.550529
H    -0.478816  2.219656  3.899887
H    0.223295  1.201859  2.628005
H    1.043635  1.476022  5.204752
N    -3.843472  0.540233  4.235978
C    -4.035114  -0.804537  4.776613
H    -4.633649  1.179767  4.310869
H    -3.440591  -1.548967  4.233632
H    -5.087043  -1.080080  4.652585
H    -3.791805  -0.855929  5.847708
Ba    2.269799  -1.395975  4.129181
