28
Energy: -106870.6463670  eV PBE+vdW (tier 2 basis)
 C    0.11007    1.25831    0.54571
 C   -0.11256    1.04191    2.00757
 O    0.84931    1.04867    2.82608
 H   -0.80675    1.19098   -0.04863
 H    0.83119    0.51470    0.17992
 H    0.56100    2.24860    0.39223
 N   -1.37942    0.83758    2.42218
 C   -1.80229    0.50442    3.76976
 C   -2.91726   -0.55677    3.61495
 O   -3.52771   -0.65473    2.55403
 H   -2.10364    0.73355    1.70703
 H   -0.93157    0.11026    4.30854
 C   -2.41897    1.68840    4.57580
 C   -1.55224    2.95909    4.62520
 C   -0.12828    2.77840    5.05655
 O    0.26713    1.78003    5.74841
 O    0.76381    3.60138    4.65027
 H   -2.62082    1.33113    5.59400
 H   -3.38880    1.96207    4.13796
 H   -2.02292    3.67299    5.32166
 H   -1.53281    3.46517    3.64892
 N   -3.25351   -1.35464    4.67469
 C   -2.53450   -1.61202    5.90115
 H   -4.01699   -1.99872    4.44510
 H   -2.06832   -2.61165    5.87623
 H   -3.25700   -1.62220    6.73398
 H   -1.77392   -0.85160    6.09352
Sr    2.35778    1.82869    4.44520
