28
Energy: -106870.3233708  eV PBE+vdW (tier 2 basis)
 C    0.11392    0.54252   -0.07770
 C   -0.14276    0.43423    1.38068
 O    0.75798    0.74374    2.20781
 H   -0.72566    0.21518   -0.69868
 H    0.98814   -0.08809   -0.29930
 H    0.38786    1.57735   -0.33177
 N   -1.31490   -0.02728    1.92315
 C   -2.71869    0.06411    1.54839
 C   -3.14681   -0.64780    0.22151
 O   -2.42283   -0.77550   -0.75714
 H   -1.19861   -0.18326    2.92606
 H   -3.23442   -0.48521    2.34709
 C   -3.30727    1.52238    1.57618
 C   -2.47398    2.63106    0.93288
 C   -1.30612    3.06377    1.79282
 O   -0.27332    3.60488    1.27679
 O   -1.31481    2.84735    3.05523
 H   -3.44498    1.75445    2.64527
 H   -4.31153    1.50556    1.13128
 H   -2.12603    2.40331   -0.08229
 H   -3.11738    3.52061    0.82196
 N   -4.42947   -1.09897    0.23390
 C   -4.99251   -1.85849   -0.86946
 H   -4.93665   -1.10823    1.11710
 H   -6.08205   -1.73666   -0.85383
 H   -4.76540   -2.93369   -0.77564
 H   -4.55813   -1.49995   -1.81043
Sr    1.13444    2.92795    3.11884
