28
Energy: -106869.9646445  eV PBE+vdW (tier 2 basis)
 C    0.46705   -0.42680   -0.04583
 C    0.36195    0.03557    1.37310
 O    1.27177    0.58859    1.97581
 H   -0.49047   -0.52780   -0.56361
 H    1.12960    0.24741   -0.59791
 H    0.94986   -1.41657   -0.02433
 N   -0.78508   -0.21483    2.15482
 C   -2.18539   -0.15408    1.78570
 C   -2.51774   -1.33665    0.80241
 O   -3.01952   -1.14758   -0.29739
 H   -0.58139   -0.04111    3.14367
 H   -2.72660   -0.37070    2.72000
 C   -2.75624    1.20615    1.30232
 C   -2.19912    1.79386    0.01043
 C   -2.91766    3.05077   -0.44647
 O   -4.04840    3.38867    0.05482
 O   -2.37505    3.75952   -1.36796
 H   -2.60829    1.90801    2.13570
 H   -3.84065    1.06371    1.20654
 H   -2.30509    1.08453   -0.82740
 H   -1.13201    2.04923    0.07167
 N   -2.22070   -2.56717    1.29029
 C   -2.58436   -3.79366    0.59980
 H   -1.91573   -2.63559    2.25923
 H   -2.53486   -3.62498   -0.48168
 H   -3.60885   -4.10801    0.85493
 H   -1.89423   -4.58710    0.90896
Sr   -4.15726    5.24921   -1.36479
