28
Energy: -106870.0319819  eV PBE+vdW (tier 2 basis)
 C    0.52209    0.38093   -0.02870
 C    0.13253   -0.31972    1.24750
 O    0.88751   -1.21307    1.64872
 H    0.24436    1.45663   -0.00903
 H    0.04737   -0.12379   -0.88199
 H    1.60827    0.30376   -0.15332
 N   -1.00125   -0.04667    1.94952
 C   -2.17619    0.76867    1.60715
 C   -2.59258    0.66879    0.12084
 O   -2.70554    1.68934   -0.61538
 H   -1.08758   -0.61408    2.79396
 H   -3.01180    0.27197    2.12922
 C   -2.11357    2.17688    2.24524
 C   -0.88301    3.07546    1.98113
 C   -0.98078    3.71738    0.63603
 O   -1.86458    4.60720    0.40142
 O   -0.28406    3.33136   -0.37339
 H   -2.16300    2.01384    3.33048
 H   -3.03782    2.71426    1.98450
 H    0.06264    2.53135    2.08987
 H   -0.88936    3.87572    2.73409
 N   -2.90453   -0.53590   -0.35706
 C   -2.94505   -1.83358    0.32534
 H   -3.21207   -0.53056   -1.32889
 H   -3.62756   -2.48450   -0.22904
 H   -3.33175   -1.73214    1.34592
 H   -1.95532   -2.30681    0.35146
Sr   -2.27928    3.69885   -1.77095
