28
Energy: -106870.5304261  eV PBE+vdW (tier 2 basis)
 C   -0.03542    1.09463    0.70345
 C   -0.29926   -0.01613    1.66139
 O    0.62756   -0.67951    2.18197
 H    1.02028    1.37447    0.74699
 H   -0.25381    0.74021   -0.31664
 H   -0.65891    1.97919    0.87797
 N   -1.58641   -0.39309    1.97728
 C   -2.76635    0.45267    2.09010
 C   -3.22347    0.97395    0.67764
 O   -3.35624    2.16582    0.45299
 H   -1.61514   -1.24248    2.54702
 H   -3.56741   -0.21155    2.44932
 C   -2.61462    1.62304    3.09079
 C   -2.36266    1.16797    4.53970
 C   -1.04117    0.47101    4.74463
 O   -0.98815   -0.80969    4.80828
 O    0.05189    1.12783    4.79583
 H   -3.55133    2.19530    3.05930
 H   -1.82361    2.30716    2.75640
 H   -3.16838    0.50989    4.89655
 H   -2.36895    2.06875    5.17384
 N   -3.47999    0.00658   -0.24806
 C   -4.08998    0.31011   -1.53033
 H   -3.49280   -0.96284    0.06580
 H   -3.84602   -0.49535   -2.23330
 H   -5.18917    0.37066   -1.44979
 H   -3.72517    1.28315   -1.88118
Sr    1.42764   -0.81760    4.45465
