28
Energy: -106870.2095105  eV PBE+vdW (tier 2 basis)
 C   -0.38848   -0.19389   -0.27771
 C   -0.18006    0.08170    1.18346
 O    0.93226    0.19568    1.69860
 H    0.13857   -1.12144   -0.53767
 H    0.08762    0.61309   -0.85132
 H   -1.43968   -0.27911   -0.57073
 N   -1.33278    0.20690    1.95699
 C   -1.44640    0.26840    3.38818
 C   -1.01990    1.69625    3.96422
 O   -1.74775    2.12779    4.85014
 H   -2.21498    0.14690    1.45037
 H   -2.52286    0.23910    3.59033
 C   -0.82257   -0.87730    4.25097
 C    0.66226   -0.81331    4.59009
 C    1.16280   -2.01713    5.36868
 O    2.27160   -1.91720    6.00467
 O    0.50384   -3.11835    5.37710
 H   -1.06362   -1.81589    3.73345
 H   -1.41077   -0.86991    5.17922
 H    0.92185    0.07389    5.18406
 H    1.28520   -0.76580    3.68099
 N    0.06029    2.30333    3.46018
 C    0.56366    3.56689    3.99022
 H    0.64623    1.74579    2.82800
 H    1.11832    4.07392    3.19320
 H    1.24027    3.40712    4.84227
 H   -0.28088    4.18062    4.32360
Sr    2.11833   -4.11086    6.75499
