28
Energy: -106870.4637883  eV PBE+vdW (tier 2 basis)
 C    0.38863   -0.11575    0.49210
 C    0.07648   -0.46365    1.92197
 O    0.73601   -1.37572    2.47700
 H    1.47574   -0.06557    0.36104
 H   -0.07248    0.83156    0.18982
 H    0.01598   -0.92911   -0.14701
 N   -0.90368    0.21473    2.55491
 C   -1.45438   -0.08197    3.88142
 C   -1.48644    1.14074    4.83486
 O   -2.51556    1.27623    5.55498
 H   -1.42906    0.87031    1.98184
 H   -2.51414   -0.34218    3.73459
 C   -0.76340   -1.26659    4.60208
 C   -1.65007   -2.40927    5.01750
 C   -2.76025   -1.79830    5.94716
 O   -3.87052   -1.53448    5.39645
 O   -2.43518   -1.46771    7.12171
 H   -0.01053   -1.65341    3.79249
 H   -0.10571   -0.93467    5.41637
 H   -1.09041   -3.15034    5.60060
 H   -2.16442   -2.88650    4.17549
 N   -0.47055    1.99109    4.92635
 C    0.85091    1.96266    4.28859
 H   -0.63842    2.76036    5.57485
 H    0.82502    2.42564    3.29469
 H    1.24028    0.94250    4.21951
 H    1.53454    2.53871    4.91986
Sr   -4.11552    0.25101    7.00538
