28
Energy: -106870.3216876  eV PBE+vdW (tier 2 basis)
 C   -0.38181    0.06869   -0.20389
 C   -0.04292    0.08311    1.25795
 O    1.09388    0.15211    1.71032
 H   -0.98105    0.95869   -0.45262
 H   -0.97366   -0.81609   -0.47505
 H    0.54369    0.08594   -0.78447
 N   -1.14588    0.00778    2.12805
 C   -1.11089   -0.22892    3.53476
 C   -0.69466    1.11593    4.33180
 O   -1.48443    1.42905    5.21547
 H   -2.06836    0.01710    1.69340
 H   -2.14585   -0.39584    3.85468
 C   -0.23742   -1.42299    4.01904
 C   -0.34058   -1.64872    5.52614
 C    0.19678   -2.98838    5.99142
 O    0.37445   -3.95520    5.16629
 O    0.44235   -3.14704    7.23968
 H    0.80362   -1.26840    3.71188
 H   -0.61518   -2.30585    3.48312
 H    0.17110   -0.87386    6.11303
 H   -1.39098   -1.61968    5.86578
 N    0.42903    1.73338    3.98443
 C    0.93991    2.90566    4.69613
 H    0.99185    1.28422    3.25168
 H    1.53117    3.49999    3.99175
 H    0.09830    3.49482    5.07628
 H    1.58048    2.61254    5.53869
Sr    1.03881   -5.36578    6.92248
