28
Energy: -106870.6414341  eV PBE+vdW (tier 2 basis)
 C   -1.68851   -0.25254   -1.02142
 C   -0.91065   -0.08164    0.25513
 O    0.30672   -0.20542    0.32875
 H   -1.08885   -0.81864   -1.73903
 H   -1.90685    0.73757   -1.44828
 H   -2.64042   -0.76681   -0.82816
 N   -1.63062    0.25635    1.40282
 C   -0.95284    0.79878    2.56241
 C    0.00976   -0.23823    3.20249
 O    1.00703    0.15546    3.85734
 H   -2.60374    0.52945    1.26590
 H   -0.27805    1.62141    2.25207
 C   -1.95111    1.35986    3.61603
 C   -1.67148    2.82551    4.03014
 C   -0.22955    2.98389    4.40824
 O    0.65628    3.16565    3.49045
 O    0.18801    2.81626    5.59763
 H   -1.94849    0.72119    4.50970
 H   -2.97499    1.30762    3.22021
 H   -2.31291    3.09004    4.88010
 H   -1.89167    3.50886    3.19805
 N   -0.31499   -1.52366    3.09736
 C    0.41775   -2.62572    3.70628
 H   -1.16882   -1.73851    2.58484
 H    0.29601   -3.51586    3.07974
 H    1.47693   -2.36386    3.78382
 H    0.02396   -2.84822    4.70917
Sr    2.29610    1.94121    4.76522
