28
Energy: -106870.3420998  eV PBE+vdW (tier 2 basis)
 C   -0.79785   -1.30670    0.25980
 C   -0.58929   -0.97755    1.70730
 O    0.50916   -1.04736    2.26375
 H   -1.83632   -1.16890   -0.05993
 H   -0.48770   -2.34351    0.07542
 H   -0.14078   -0.66345   -0.34025
 N   -1.68883   -0.58917    2.45304
 C   -1.54458   -0.26657    3.83328
 C   -1.25621   -1.57000    4.70502
 O   -2.18424   -2.28626    5.05925
 H   -2.64348   -0.63443    2.06945
 H   -0.60144    0.30473    3.93327
 C   -2.70784    0.55303    4.41033
 C   -4.10671   -0.07584    4.51876
 C   -4.99715   -0.09261    3.30516
 O   -6.26057    0.01695    3.48005
 O   -4.53604   -0.24134    2.10226
 H   -2.74771    1.49192    3.83732
 H   -2.40688    0.83626    5.42794
 H   -4.67338    0.42631    5.31274
 H   -4.01607   -1.12715    4.85298
 N    0.04500   -1.78963    4.97800
 C    0.51243   -3.02493    5.58860
 H    0.72574   -1.20608    4.49107
 H    0.71538   -3.79719    4.83094
 H   -0.25881   -3.39756    6.27236
 H    1.44503   -2.81114    6.12331
Sr   -6.77428   -0.11380    1.25191
