28
Energy: -106870.3356699  eV PBE+vdW (tier 2 basis)
 C   -0.13813   -0.10708   -0.13262
 C   -0.60266    0.45198    1.17954
 O   -0.66250    1.64486    1.45261
 H    0.59308   -0.91665   -0.00776
 H    0.29470    0.69862   -0.73121
 H   -1.00274   -0.52295   -0.67445
 N   -0.99676   -0.50776    2.13191
 C   -1.30342   -0.27507    3.50453
 C   -2.80557    0.34219    3.65618
 O   -3.52063   -0.27634    4.42925
 H   -1.02791   -1.47703    1.81688
 H   -1.39651   -1.25570    3.98448
 C   -0.34829    0.61688    4.33535
 C    1.01604   -0.05395    4.51644
 C    1.92517    0.64471    5.51097
 O    3.16588    0.32065    5.52531
 O    1.46693    1.51173    6.33582
 H   -0.82045    0.77105    5.31432
 H   -0.24572    1.59955    3.86091
 H    1.56925   -0.14082    3.57045
 H    0.91065   -1.08615    4.89311
 N   -3.09591    1.43236    2.95138
 C   -4.35598    2.15765    3.11448
 H   -2.33160    1.84379    2.40216
 H   -4.58409    2.65960    2.16793
 H   -4.28124    2.91316    3.90864
 H   -5.14958    1.44753    3.37223
Sr    3.58695    1.74072    7.31679
