28
Energy: -106870.6470263  eV PBE+vdW (tier 2 basis)
 C   -0.35083    0.33532    0.88287
 C   -0.15732   -0.69133    1.94579
 O    0.97478   -1.07732    2.30794
 H    0.50233    1.02234    0.89472
 H   -1.28297    0.90237    0.98447
 H   -0.35390   -0.16116   -0.10129
 N   -1.24820   -1.27828    2.55429
 C   -2.53641   -1.51320    1.95579
 C   -3.73419   -0.93133    2.79954
 O   -4.85362   -1.37138    2.56282
 H   -0.97948   -1.96759    3.26377
 H   -2.59160   -1.00663    0.98159
 C   -2.81045   -3.03760    1.80061
 C   -1.90888   -3.75302    0.80872
 C   -0.42307   -3.74996    1.19716
 O   -0.08871   -4.00407    2.40530
 O    0.42679   -3.41834    0.31093
 H   -3.86439   -3.09262    1.46657
 H   -2.77293   -3.51810    2.78927
 H   -2.19840   -4.81768    0.77967
 H   -2.00444   -3.35745   -0.20925
 N   -3.46713    0.02445    3.70762
 C   -4.51185    0.72762    4.44268
 H   -2.51884    0.39485    3.72678
 H   -5.33672    0.03423    4.64426
 H   -4.07985    1.10991    5.37460
 H   -4.90479    1.57836    3.86447
Sr    2.13806   -3.20134    1.99230
