28
Energy: -106870.2958804  eV PBE+vdW (tier 2 basis)
 C   -0.17689    1.78086    1.93532
 C    0.00938    0.34233    2.31650
 O    1.01738   -0.07844    2.86601
 H   -1.18274    2.13753    2.19298
 H   -0.01651    1.89098    0.85188
 H    0.57405    2.38592    2.45213
 N   -0.98469   -0.59932    2.01633
 C   -1.98771   -0.48147    0.98244
 C   -3.28516    0.21641    1.52872
 O   -3.95926    0.96074    0.77241
 H   -0.69139   -1.54788    2.26840
 H   -1.65176    0.19851    0.18036
 C   -2.23238   -1.87677    0.35576
 C   -3.46916   -2.04945   -0.54059
 C   -3.77616   -0.88882   -1.43921
 O   -4.97906   -0.66115   -1.79827
 O   -2.88247   -0.02490   -1.76277
 H   -2.30401   -2.62320    1.16130
 H   -1.32485   -2.11005   -0.21820
 H   -4.37809   -2.24439    0.04651
 H   -3.33354   -2.94334   -1.16983
 N   -3.61661   -0.03013    2.78795
 C   -4.81697    0.46885    3.45946
 H   -2.99317   -0.63825    3.31590
 H   -4.59946    0.57849    4.52693
 H   -5.64953   -0.23700    3.33731
 H   -5.09715    1.43841    3.03752
Sr   -4.59182    1.66083   -1.47523
