28
Energy: -106870.2277670  eV PBE+vdW (tier 2 basis)
 C   -0.26231   -1.14491   -0.03109
 C    0.01599   -0.03728    0.93677
 O    1.04674    0.08063    1.57615
 H    0.68760   -1.60843   -0.31496
 H   -0.88038   -1.91751    0.45077
 H   -0.78422   -0.78535   -0.92802
 N   -0.96818    0.95589    1.16500
 C   -2.37907    0.79414    1.02271
 C   -2.94282    1.79572   -0.10908
 O   -4.16104    1.88193   -0.21857
 H   -0.64649    1.65029    1.84620
 H   -2.59250   -0.19933    0.60183
 C   -3.14290    1.01637    2.35011
 C   -4.58307    0.50644    2.32232
 C   -5.38108    0.80636    3.57569
 O   -6.45304    0.13373    3.78505
 O   -5.01587    1.72652    4.39156
 H   -3.12079    2.08105    2.62435
 H   -2.57571    0.48043    3.12559
 H   -4.63967   -0.57600    2.14107
 H   -5.15321    0.97464    1.49976
 N   -2.04198    2.43597   -0.85042
 C   -2.39305    3.30406   -1.97753
 H   -1.06471    2.21280   -0.67651
 H   -2.55049    2.71637   -2.89108
 H   -1.56860    4.00572   -2.13796
 H   -3.30921    3.85494   -1.74225
Sr   -6.92197    1.34007    5.70618
