28
Energy: -106870.5561273  eV PBE+vdW (tier 2 basis)
 C   -0.10018   -0.94444    0.21546
 C   -0.34094   -0.23077    1.51814
 O    0.09111   -0.65801    2.59393
 H    0.84864   -1.48606    0.27295
 H   -0.09067   -0.24442   -0.63008
 H   -0.90444   -1.67938    0.06036
 N   -1.10603    0.91651    1.47948
 C   -1.69977    1.59005    2.62623
 C   -0.67395    2.41328    3.46476
 O   -1.00411    3.58342    3.81032
 H   -1.50463    1.15024    0.57162
 H   -2.37164    2.34178    2.19069
 C   -2.55155    0.66034    3.57460
 C   -3.95790    1.20346    3.89849
 C   -3.89202    2.61411    4.40191
 O   -4.11155    3.58795    3.60124
 O   -3.48997    2.89751    5.58031
 H   -1.99293    0.47649    4.50094
 H   -2.67131   -0.30980    3.07754
 H   -4.60517    1.17456    3.01062
 H   -4.41299    0.56508    4.67157
 N    0.47219    1.85864    3.81068
 C    1.50705    2.51229    4.61111
 H    0.59588    0.87050    3.55173
 H    1.59149    3.56604    4.32755
 H    1.27705    2.43500    5.68247
 H    2.45857    2.00747    4.42019
Sr   -2.59423    5.02320    4.85221
