28
Energy: -106870.0338716  eV PBE+vdW (tier 2 basis)
 C    0.35333    0.97555    0.00555
 C   -0.16505   -0.26146    0.65405
 O    0.30685   -1.37567    0.48820
 H    0.31511    1.83256    0.68940
 H   -0.21847    1.21337   -0.90274
 H    1.38901    0.78802   -0.29983
 N   -1.24482   -0.25129    1.58743
 C   -2.49728    0.45015    1.63887
 C   -3.68901   -0.55352    1.80199
 O   -4.49216   -0.41210    2.76510
 H   -1.21005   -1.11538    2.13602
 H   -2.53004    1.00882    2.62083
 C   -2.72959    1.57107    0.60941
 C   -4.08284    2.28394    0.78263
 C   -4.55176    2.43428    2.20586
 O   -5.78849    2.53074    2.47002
 O   -3.72482    2.34074    3.19462
 H   -2.66346    1.19157   -0.41921
 H   -1.92026    2.30144    0.73296
 H   -4.02531    3.29002    0.33875
 H   -4.89121    1.77347    0.24039
 N   -3.84587   -1.54939    0.93331
 C   -3.07545   -1.90069   -0.26373
 H   -4.64064   -2.15368    1.14776
 H   -3.74673   -2.41882   -0.95556
 H   -2.69733   -1.00802   -0.77003
 H   -2.23909   -2.56795   -0.01779
Sr   -5.49350    1.09290    4.34814
