28
Energy: -106870.2713248  eV PBE+vdW (tier 2 basis)
 C   -0.35898    1.23893    0.67370
 C   -0.56330    0.49205    1.94195
 O    0.17271    0.65227    2.95001
 H    0.63704    0.96617    0.29046
 H   -0.32868    2.31855    0.86880
 H   -1.09649    1.01164   -0.10177
 N   -1.55685   -0.44034    2.07595
 C   -2.85304   -0.61908    1.45336
 C   -3.55280    0.75893    1.10172
 O   -4.09588    0.89054    0.01865
 H   -1.44005   -0.99584    2.92821
 H   -2.76329   -1.11429    0.47642
 C   -3.72280   -1.47440    2.40191
 C   -4.00826   -0.90023    3.81912
 C   -2.78702   -0.35565    4.53741
 O   -1.89462   -1.14702    4.98811
 O   -2.59250    0.91757    4.59461
 H   -3.22556   -2.45336    2.49004
 H   -4.68275   -1.67288    1.90829
 H   -4.42687   -1.71540    4.42572
 H   -4.77178   -0.11136    3.77032
 N   -3.57083    1.73494    2.05949
 C   -4.35941    2.93439    1.87663
 H   -3.25273    1.50279    3.02387
 H   -3.97323    3.70840    2.55126
 H   -5.42121    2.77177    2.13922
 H   -4.32970    3.24234    0.82296
Sr   -0.25518    0.59895    5.34053
