28
Energy: -106870.6928420  eV PBE+vdW (tier 2 basis)
 C   -1.07569   -0.40016   -0.35085
 C   -0.42275   -0.70310    0.95692
 O    0.82820   -0.75866    1.07226
 H   -2.03048    0.12716   -0.24838
 H   -1.24994   -1.33749   -0.90285
 H   -0.38932    0.20850   -0.94865
 N   -1.16948   -0.96096    2.06722
 C   -2.51951   -1.44957    2.12795
 C   -3.28146   -0.68325    3.27012
 O   -2.66971   -0.33004    4.26632
 H   -0.63624   -1.04776    2.93662
 H   -3.00410   -1.28972    1.15689
 C   -2.56297   -2.96225    2.52329
 C   -1.81472   -3.86245    1.52146
 C   -0.31034   -3.72076    1.55152
 O    0.29990   -3.38158    2.62620
 O    0.37686   -3.90654    0.49438
 H   -3.61200   -3.28254    2.57884
 H   -2.13823   -3.06906    3.53129
 H   -2.03581   -4.91116    1.78484
 H   -2.16678   -3.73226    0.48988
 N   -4.61181   -0.49332    3.08027
 C   -5.41332    0.31125    3.98550
 H   -5.02083   -0.75504    2.18498
 H   -6.45160   -0.03945    3.93473
 H   -5.00133    0.22330    4.99817
 H   -5.39985    1.37698    3.70022
Sr    2.26028   -2.65108    1.35788
