28
Energy: -106870.1475716  eV PBE+vdW (tier 2 basis)
 C   -0.92719   -0.23075   -0.13871
 C   -0.64135    0.42900    1.18077
 O    0.50222    0.56435    1.60468
 H    0.00969   -0.32399   -0.69578
 H   -1.64569    0.35703   -0.72547
 H   -1.33246   -1.23996    0.02414
 N   -1.67382    0.89884    1.98705
 C   -3.05135    0.41582    1.97529
 C   -3.91779    1.65576    2.36817
 O   -4.37698    1.79410    3.53239
 H   -1.32620    1.25070    2.88305
 H   -3.30944    0.16469    0.93690
 C   -3.22992   -0.84035    2.85620
 C   -4.61510   -1.52084    2.82410
 C   -5.57271   -0.84868    3.76072
 O   -6.57680   -0.18161    3.34366
 O   -5.33276   -0.82168    5.02009
 H   -2.94319   -0.62119    3.89392
 H   -2.49323   -1.56479    2.48184
 H   -4.48704   -2.55835    3.16992
 H   -5.04542   -1.56325    1.81425
 N   -4.12523    2.57835    1.43145
 C   -3.66883    2.60314    0.03841
 H   -4.66091    3.38634    1.74538
 H   -4.12343    3.47089   -0.44731
 H   -3.99723    1.70696   -0.50230
 H   -2.57880    2.70702   -0.01766
Sr   -6.12857    1.40649    5.14426
