28
Energy: -106870.4710731  eV PBE+vdW (tier 2 basis)
 C    0.68682   -0.03682   -0.13739
 C    0.41888    0.02454    1.33059
 O    1.34116    0.11050    2.17410
 H    1.27015   -0.94494   -0.34921
 H    1.30661    0.82002   -0.43272
 H   -0.22069   -0.05169   -0.74983
 N   -0.88458   -0.01216    1.73455
 C   -1.29089   -0.00063    3.11568
 C   -2.42624   -1.02545    3.41119
 O   -2.08074   -1.91088    4.20027
 H   -1.58608   -0.02998    0.99823
 H   -0.43092   -0.38963    3.68295
 C   -1.63571    1.41590    3.73142
 C   -0.99681    1.62798    5.11189
 C    0.49591    1.45708    5.04136
 O    1.02527    0.34370    5.38428
 O    1.24787    2.35251    4.53028
 H   -2.71886    1.55748    3.81457
 H   -1.25877    2.16503    3.02221
 H   -1.40453    0.93518    5.86288
 H   -1.23065    2.65316    5.44212
 N   -3.66332   -0.92609    2.90471
 C   -4.15371   -0.05651    1.83941
 H   -4.28637   -1.68045    3.19936
 H   -3.60975    0.89368    1.81788
 H   -5.20843    0.16893    2.03772
 H   -4.09594   -0.55028    0.85784
Sr    2.88616    0.71106    3.87968
