28
Energy: -106870.5137536  eV PBE+vdW (tier 2 basis)
 C   -1.04431    1.39217   -0.02032
 C   -1.38777    0.98759    1.37138
 O   -2.05177    1.72730    2.14085
 H   -0.50625    0.61995   -0.57979
 H   -0.43105    2.30406    0.01372
 H   -1.96784    1.65353   -0.55496
 N   -0.96933   -0.23631    1.81834
 C   -1.32004   -0.66364    3.15408
 C   -0.43039    0.02264    4.23539
 O   -0.93982    0.98079    4.87678
 H   -0.47845   -0.85209    1.17274
 H   -2.27335   -0.14800    3.32799
 C   -1.66274   -2.15170    3.37403
 C   -3.19605   -2.34366    3.51810
 C   -3.83722   -1.40582    4.51944
 O   -3.89382   -0.12284    4.30362
 O   -4.33156   -1.78892    5.59047
 H   -1.16859   -2.52166    4.28275
 H   -1.30240   -2.78330    2.55100
 H   -3.42914   -3.37607    3.80646
 H   -3.68905   -2.15366    2.54967
 N    0.81399   -0.37983    4.47161
 C    1.56831   -1.47234    3.86516
 H    1.27400    0.11850    5.23649
 H    1.07983   -1.83403    2.95731
 H    2.56982   -1.11025    3.60191
 H    1.67294   -2.30524    4.57352
Sr   -3.00213    2.09740    4.33307
