28
Energy: -106869.9157555  eV PBE+vdW (tier 2 basis)
 C    0.23826    0.49946    0.15988
 C    0.09338    0.12562    1.59794
 O    0.99184    0.22713    2.42318
 H    0.16587    1.59100    0.05044
 H    1.24701    0.21337   -0.16282
 H   -0.51232    0.01810   -0.48085
 N   -1.11060   -0.39701    2.10869
 C   -2.46893   -0.16976    1.69277
 C   -2.79022   -1.24663    0.53471
 O   -2.62639   -0.90397   -0.62784
 H   -0.96978   -0.78785    3.04352
 H   -3.10328   -0.43834    2.54821
 C   -2.85075    1.23464    1.19826
 C   -2.67440    2.29183    2.29193
 C   -3.14851    3.68079    1.90871
 O   -3.67946    3.91178    0.76484
 O   -3.00994    4.62506    2.76637
 H   -3.90246    1.18803    0.88507
 H   -2.28693    1.49326    0.29560
 H   -1.62549    2.39754    2.61074
 H   -3.22191    2.02757    3.21141
 N   -3.20973   -2.45929    0.92823
 C   -3.51639   -2.93799    2.27510
 H   -3.47026   -3.06805    0.15191
 H   -3.68687   -4.01728    2.20749
 H   -4.42990   -2.47928    2.67845
 H   -2.67581   -2.78221    2.96025
Sr   -3.99461    6.16735    1.34126
