28
Energy: -106870.1234222  eV PBE+vdW (tier 2 basis)
 C   -0.15670   -0.42137    0.41037
 C   -0.49823   -0.50290    1.87415
 O    0.37085   -0.81431    2.68498
 H    0.90801   -0.18727    0.30505
 H   -0.32416   -1.41930   -0.02266
 H   -0.74969    0.32838   -0.13638
 N   -1.78397   -0.32678    2.36593
 C   -2.84900    0.54125    1.85921
 C   -3.44238    0.01051    0.52430
 O   -3.94083    0.77825   -0.33883
 H   -1.81483   -0.49519    3.37481
 H   -3.67435    0.37433    2.57426
 C   -2.58854    2.06936    1.98256
 C   -1.46952    2.75312    1.17050
 C   -1.85315    2.88862   -0.27063
 O   -1.45953    2.06240   -1.16440
 O   -2.71030    3.76714   -0.62865
 H   -2.37450    2.23950    3.04651
 H   -3.54319    2.57628    1.78735
 H   -0.49422    2.26157    1.27304
 H   -1.35924    3.76942    1.58047
 N   -3.49117   -1.31217    0.40053
 C   -4.13837   -2.01586   -0.70523
 H   -3.10192   -1.86499    1.16109
 H   -3.59614   -1.84322   -1.64453
 H   -4.12905   -3.08713   -0.48784
 H   -5.17778   -1.68380   -0.81557
Sr   -3.72928    2.27679   -2.16512
