28
Energy: -106870.0458179  eV PBE+vdW (tier 2 basis)
 C    0.34471   -1.01139    2.57866
 C   -0.35641    0.28065    2.29406
 O    0.17975    1.37718    2.36095
 H    1.14043   -1.16124    1.83661
 H    0.84342   -0.90932    3.55213
 H   -0.30991   -1.88720    2.59973
 N   -1.72444    0.31167    1.94425
 C   -2.47271   -0.66042    1.19541
 C   -2.97420   -1.83991    2.15548
 O   -3.11394   -2.96274    1.69545
 H   -2.07304    1.27447    1.94020
 H   -3.39884   -0.16034    0.87135
 C   -1.77780   -1.26561   -0.04492
 C   -1.58082   -0.23204   -1.15419
 C   -1.00075   -0.79628   -2.43774
 O   -0.46464   -1.96095   -2.46838
 O   -1.04935   -0.07284   -3.49561
 H   -2.43069   -2.08418   -0.37864
 H   -0.82573   -1.73456    0.23001
 H   -0.89870    0.57998   -0.85042
 H   -2.52291    0.26684   -1.42662
 N   -3.25278   -1.48367    3.42178
 C   -3.88052   -2.38967    4.37863
 H   -3.19840   -0.49359    3.65019
 H   -4.97258   -2.41109    4.25051
 H   -3.65245   -2.03467    5.38939
 H   -3.48902   -3.40167    4.22878
Sr   -0.01410   -1.71794   -4.76106
