28
Energy: -106870.8633828  eV PBE+vdW (tier 2 basis)
 C    0.12647   -0.38649    0.69056
 C   -0.28582   -0.59985    2.11474
 O    0.36105   -1.37580    2.85627
 H   -0.55983    0.25782    0.13056
 H    0.19398   -1.36312    0.19318
 H    1.13213    0.05588    0.66999
 N   -1.36608    0.08574    2.55976
 C   -2.00882    0.10649    3.87863
 C   -1.03006    0.44435    5.04301
 O    0.02489   -0.19675    5.26310
 H   -1.76212    0.73451    1.88392
 H   -2.66527    0.98496    3.81998
 C   -2.97890   -1.08195    4.19146
 C   -2.64131   -2.51932    3.76384
 C   -1.48720   -3.11311    4.50168
 O   -1.17530   -2.74279    5.68799
 O   -0.67009   -3.92839    3.97199
 H   -3.92022   -0.82956    3.68103
 H   -3.20285   -1.05060    5.26690
 H   -2.45708   -2.61317    2.68518
 H   -3.52364   -3.14913    3.96806
 N   -1.39681    1.45744    5.82300
 C   -0.65960    1.87260    7.01888
 H   -2.25371    1.95701    5.60159
 H   -1.11091    2.79196    7.40038
 H    0.39085    2.05882    6.76583
 H   -0.71379    1.09507    7.79179
Sr    1.12703   -2.35361    4.89470
