28
Energy: -106870.4538078  eV PBE+vdW (tier 2 basis)
 C    0.44256    0.48077    0.54024
 C    0.08208    0.29847    1.98506
 O    0.83627    0.53429    2.92377
 H    1.52936    0.54911    0.44235
 H   -0.00335    1.41277    0.16164
 H    0.05792   -0.35205   -0.06581
 N   -1.20811   -0.15164    2.26978
 C   -1.74340   -0.09894    3.60384
 C   -0.78557   -0.70571    4.67852
 O   -0.63770   -0.08832    5.76864
 H   -1.87694   -0.18135    1.49885
 H   -1.83415    0.95894    3.93766
 C   -3.18046   -0.65787    3.63727
 C   -3.84729   -0.66063    5.02872
 C   -3.47007    0.47667    5.93315
 O   -3.46375    0.32301    7.19644
 O   -3.02879    1.59666    5.47946
 H   -3.21135   -1.67982    3.23548
 H   -3.77420   -0.02999    2.95585
 H   -4.94187   -0.64912    4.90783
 H   -3.62212   -1.58458    5.58095
 N   -0.24230   -1.91137    4.51817
 C   -0.24771   -2.82393    3.37933
 H    0.29468   -2.21987    5.33043
 H   -0.31449   -3.85035    3.75456
 H   -1.09666   -2.63212    2.71776
 H    0.68224   -2.71618    2.80311
Sr   -1.39334    1.55692    7.30425
