28
Energy: -106870.6504772  eV PBE+vdW (tier 2 basis)
 C    0.20459    1.19008    0.73527
 C   -0.13912    0.42219    1.95270
 O    0.39852    0.58838    3.05984
 H   -0.64579    1.32382    0.05542
 H    0.95426    0.59849    0.17876
 H    0.65864    2.15197    0.99318
 N   -1.10618   -0.59749    1.88331
 C   -2.49355   -0.34181    1.55733
 C   -2.98663    1.01607    2.18374
 O   -2.47422    1.44427    3.24261
 H   -1.00434   -1.29727    2.64260
 H   -2.57697   -0.22656    0.45961
 C   -3.38253   -1.52169    2.02108
 C   -3.91185   -1.47678    3.48125
 C   -2.87751   -1.13169    4.51329
 O   -1.62992   -1.41179    4.32856
 O   -3.14955   -0.46657    5.55176
 H   -2.82218   -2.44894    1.83978
 H   -4.26272   -1.56860    1.36592
 H   -4.32719   -2.46625    3.73141
 H   -4.74345   -0.76765    3.59034
 N   -3.98597    1.61761    1.54752
 C   -4.68816    2.80681    2.03474
 H   -4.33132    1.19108    0.68998
 H   -5.58388    2.52133    2.60313
 H   -4.99266    3.40956    1.17232
 H   -4.01872    3.38476    2.67740
Sr   -1.00761    0.82565    5.15715
