23
Energy: -24373.0960948 eV PBE+vdW (tier 2 basis)
C    -0.435300  -0.754327  0.150346
C    -0.562825  -0.510869  1.640600
O    0.248707  -0.965708  2.440095
H    0.036578  -1.731581  0.008546
H    0.238923  0.002745  -0.274834
H    -1.381762  -0.717353  -0.399883
N    -1.633929  0.237731  2.101492
C    -2.600386  1.043039  1.356632
C    -3.611978  0.210660  0.521350
O    -4.199806  0.707238  -0.436173
H    -1.552225  0.432749  3.095602
H    -3.216407  1.528383  2.130116
C    -1.999946  2.172405  0.506925
S    -1.089231  3.418283  1.477511
H    -2.822371  2.716457  0.028723
H    -1.365956  1.787872  -0.299513
H    -0.083532  2.608385  1.886349
N    -3.823878  -1.051056  0.979193
C    -4.770003  -1.961974  0.365335
H    -3.252876  -1.362302  1.757724
H    -5.526643  -2.291939  1.090149
H    -4.262588  -2.846575  -0.044601
H    -5.266642  -1.426357  -0.450630
