23
Energy: -24372.2147643 eV PBE+vdW (tier 2 basis)
C    1.181189  -1.179685  1.341264
C    0.647418  -0.356237  2.493659
O    1.358093  -0.072173  3.467508
H    0.539669  -1.161173  0.452065
H    1.281771  -2.220718  1.676907
H    2.181011  -0.817758  1.077949
N    -0.651119  0.039110  2.383368
C    -1.479830  0.631434  3.438543
C    -1.165229  2.110179  3.802481
O    -2.091787  2.918521  3.869992
H    -1.153625  -0.286154  1.567433
H    -2.490355  0.690838  3.018038
C    -1.538682  -0.221977  4.720933
S    -2.169707  -1.918620  4.478016
H    -2.149007  0.297762  5.468703
H    -0.533916  -0.356029  5.138898
H    -3.461067  -1.578781  4.255912
N    0.131721  2.385562  4.074559
C    0.580956  3.708476  4.460236
H    0.798986  1.607558  4.004041
H    -0.282594  4.381678  4.444506
H    1.342959  4.083397  3.762741
H    1.008145  3.700789  5.473247
