23
Energy: -24372.1689692 eV PBE+vdW (tier 2 basis)
C    -2.096301  1.127420  1.242966
C    -0.651482  1.027618  1.694307
O    0.012687  2.011376  2.007160
H    -2.395294  2.177089  1.298442
H    -2.762969  0.525675  1.876416
H    -2.217795  0.777726  0.207819
N    -0.100403  -0.234692  1.752092
C    -0.726041  -1.510051  1.468852
C    -1.390597  -2.212538  2.682752
O    -1.961331  -3.289954  2.524578
H    0.870607  -0.258159  2.061642
H    -1.549194  -1.351153  0.756167
C    0.251571  -2.481866  0.788747
S    1.786596  -2.810658  1.735616
H    0.521448  -2.125711  -0.211203
H    -0.249205  -3.451728  0.692297
H    2.527973  -1.811611  1.204415
N    -1.305078  -1.549874  3.861904
C    -1.854119  -2.072368  5.097720
H    -0.769469  -0.688649  3.872448
H    -2.407118  -2.986306  4.856111
H    -2.537086  -1.347710  5.560827
H    -1.057400  -2.317876  5.813926
