23
Energy: -24373.2751936 eV PBE+vdW (tier 2 basis)
C    -0.075714  -1.047603  0.210055
C    -0.372846  -0.705312  1.653312
O    -0.109831  -1.484311  2.578355
H    1.005967  -1.198939  0.103930
H    -0.398112  -0.277330  -0.500537
H    -0.565509  -1.996646  -0.039062
N    -0.948643  0.509084  1.872410
C    -1.156018  1.059098  3.212219
C    -2.473423  0.525360  3.852650
O    -3.451082  1.250365  4.031163
H    -1.101320  1.129017  1.084238
H    -0.312078  0.713842  3.831071
C    -1.194555  2.581296  3.173013
S    0.350384  3.219943  2.408164
H    -1.289099  2.956942  4.196866
H    -2.070364  2.922196  2.607747
H    -0.004919  4.523979  2.456353
N    -2.402608  -0.787165  4.183178
C    -3.534202  -1.519677  4.716311
H    -1.559289  -1.288072  3.884118
H    -3.238533  -2.089767  5.606867
H    -3.948489  -2.218171  3.973956
H    -4.310779  -0.798387  4.991525
