23
Energy: -24372.0959242 eV PBE+vdW (tier 2 basis)
C    -4.150661  -0.335653  2.600946
C    -2.654848  -0.089915  2.576874
O    -1.836121  -1.006417  2.486952
H    -4.745245  0.584099  2.654635
H    -4.388537  -0.968601  3.465166
H    -4.432222  -0.894073  1.699781
N    -2.272497  1.219434  2.648203
C    -0.883702  1.597306  2.773474
C    -0.870045  3.009659  3.400580
O    -1.921643  3.620988  3.608893
H    -2.927125  1.968014  2.877455
H    -0.380461  0.883887  3.446885
C    -0.178570  1.528427  1.395002
S    1.650345  1.515574  1.447008
H    -0.448229  2.395541  0.777593
H    -0.513191  0.621316  0.881593
H    1.769939  0.287462  2.004744
N    0.358067  3.495595  3.696547
C    0.560053  4.833467  4.222676
H    1.161772  2.959953  3.364340
H    0.759807  5.564248  3.424225
H    1.405004  4.832319  4.921327
H    -0.347892  5.141370  4.751103
