23
Energy: -24373.0422124 eV PBE+vdW (tier 2 basis)
C    -0.047198  0.087331  0.105662
C    -0.001412  -0.093050  1.610457
O    1.059664  -0.081021  2.224296
H    0.825032  -0.418642  -0.321181
H    0.056057  1.158581  -0.117389
H    -0.957572  -0.280465  -0.379245
N    -1.189446  -0.293423  2.295847
C    -2.564734  -0.145905  1.826865
C    -2.998488  -1.223840  0.794326
O    -3.921433  -1.017921  0.009705
H    -1.047924  -0.243350  3.300997
H    -3.188777  -0.362362  2.709114
C    -2.949658  1.262721  1.345657
S    -2.807125  2.545263  2.640606
H    -3.964361  1.243228  0.937321
H    -2.288641  1.597999  0.537702
H    -3.962061  2.245496  3.279966
N    -2.326747  -2.400717  0.893818
C    -2.615380  -3.545062  0.052135
H    -1.554564  -2.435869  1.551064
H    -2.860104  -4.427550  0.658642
H    -1.762738  -3.787623  -0.597905
H    -3.477680  -3.290343  -0.573071
