23
Energy: -24372.3620471 eV PBE+vdW (tier 2 basis)
C    0.865393  -0.653668  0.835994
C    0.285448  0.016973  2.064180
O    0.744062  1.086342  2.489276
H    1.930673  -0.847244  1.013292
H    0.797687  0.042115  -0.009524
H    0.371728  -1.594809  0.566429
N    -0.763967  -0.623474  2.647738
C    -1.430965  -0.265593  3.904945
C    -2.315659  1.011023  3.856880
O    -3.462290  0.972773  4.303790
H    -1.055325  -1.498916  2.232101
H    -2.149245  -1.071386  4.092245
C    -0.475060  -0.195587  5.111121
S    0.391919  -1.759189  5.482516
H    -1.075089  0.017543  6.005119
H    0.259521  0.608136  4.997799
H    1.315691  -1.665898  4.499273
N    -1.729968  2.122945  3.357868
C    -2.437444  3.388408  3.294958
H    -0.755608  2.049324  3.046015
H    -3.389793  3.277365  2.759400
H    -1.810787  4.114892  2.767553
H    -2.663920  3.772923  4.300030
