23
Energy: -24372.811771 eV PBE+vdW (tier 2 basis)
C    0.019832  0.018817  0.169247
C    -0.013798  0.084701  1.680152
O    1.009021  0.219915  2.348063
H    0.922537  0.540316  -0.161765
H    -0.857712  0.462539  -0.310912
H    0.099528  -1.031565  -0.146583
N    -1.219866  -0.075294  2.340487
C    -2.599881  -0.121916  1.873210
C    -2.830565  -0.954927  0.590659
O    -3.433396  -0.494564  -0.374856
H    -1.090309  -0.023185  3.347691
H    -3.149113  -0.675765  2.658255
C    -3.294906  1.252498  1.794840
S    -2.492652  2.542082  0.783695
H    -3.434133  1.643647  2.810116
H    -4.285797  1.118859  1.345002
H    -1.527014  2.857329  1.678239
N    -2.394409  -2.249633  0.603771
C    -1.737699  -2.997940  1.663491
H    -2.582371  -2.731375  -0.269850
H    -1.894706  -4.066846  1.479347
H    -2.171332  -2.765107  2.644194
H    -0.655798  -2.807333  1.714299
