23
Energy: -24372.9296883 eV PBE+vdW (tier 2 basis)
C    -0.095321  0.069407  0.056158
C    -0.012085  0.118387  1.567600
O    1.059950  0.226406  2.157552
H    -0.205884  -0.972609  -0.276803
H    0.845076  0.460219  -0.341358
H    -0.938867  0.630828  -0.361459
N    -1.176877  -0.006212  2.297598
C    -2.570757  -0.060060  1.866650
C    -2.836174  -1.103048  0.753535
O    -3.368614  -0.788141  -0.308548
H    -1.009528  0.051870  3.297907
H    -3.130454  -0.403404  2.752133
C    -3.155699  1.303379  1.471684
S    -3.188104  2.501977  2.848188
H    -4.202602  1.178089  1.171131
H    -2.630133  1.734022  0.612577
H    -1.847964  2.669623  2.945949
N    -2.479202  -2.394189  1.016710
C    -1.893197  -2.960614  2.221649
H    -2.677672  -3.022087  0.243890
H    -2.078940  -4.040486  2.221250
H    -2.360666  -2.547977  3.125174
H    -0.809118  -2.790512  2.285318
