23
Energy: -24373.1708896 eV PBE+vdW (tier 2 basis)
C    0.378163  0.175079  1.502504
C    -0.226613  1.216013  2.425409
O    0.446668  1.866217  3.219596
H    0.166798  0.395185  0.446750
H    -0.016458  -0.828265  1.717411
H    1.459335  0.170676  1.661524
N    -1.586929  1.418826  2.332764
C    -2.539194  0.788453  1.441816
C    -2.778507  1.519924  0.093970
O    -3.559293  1.042705  -0.727115
H    -1.953591  2.126286  2.968726
H    -2.155382  -0.201958  1.154581
C    -3.888007  0.543272  2.137163
S    -4.669302  2.046045  2.842614
H    -3.787204  -0.207070  2.928517
H    -4.592236  0.168692  1.385890
H    -4.107114  1.963633  4.070836
N    -2.065879  2.658104  -0.089055
C    -2.181222  3.473786  -1.281949
H    -1.486545  2.971705  0.682147
H    -1.197356  3.637313  -1.741530
H    -2.633691  4.449172  -1.054355
H    -2.825712  2.940674  -1.988930
