23
Energy: -24372.2501716 eV PBE+vdW (tier 2 basis)
C    0.665868  -0.282926  0.530769
C    0.327747  0.233868  1.917943
O    1.024360  1.058094  2.501243
H    0.959591  0.563190  -0.100359
H    -0.153224  -0.830506  0.048377
H    1.534871  -0.950307  0.607873
N    -0.827274  -0.279915  2.467416
C    -1.207453  -0.118007  3.871284
C    -1.717508  1.295696  4.253894
O    -1.879723  1.585064  5.436888
H    -1.264221  -1.049140  1.973914
H    -2.077949  -0.776140  4.013826
C    -0.125647  -0.562967  4.868715
S    0.309484  -2.329470  4.749617
H    -0.520689  -0.418032  5.880191
H    0.775454  0.049799  4.768344
H    1.085697  -2.238225  3.645426
N    -2.031992  2.113167  3.217784
C    -2.481701  3.477378  3.412984
H    -1.772103  1.803195  2.289212
H    -3.358847  3.689575  2.787729
H    -1.688100  4.200386  3.173477
H    -2.753641  3.592223  4.467457
