23
Energy: -24372.2566746 eV PBE+vdW (tier 2 basis)
C    -0.618509  0.558710  -0.316262
C    -0.626463  -0.015429  1.087634
O    -0.125369  -1.106355  1.356804
H    0.422112  0.665573  -0.646975
H    -1.122376  1.529321  -0.399455
H    -1.103897  -0.157261  -0.990802
N    -1.230906  0.763893  2.035077
C    -1.336372  0.353408  3.423089
C    -2.618722  0.998180  3.969804
O    -2.884276  2.169484  3.685227
H    -1.643126  1.664498  1.807261
H    -1.367379  -0.742777  3.442208
C    -0.093525  0.830892  4.209570
S    0.014326  0.290212  5.950516
H    -0.015167  1.923603  4.155418
H    0.792932  0.397394  3.729964
H    -0.944674  1.112241  6.436519
N    -3.420697  0.252822  4.773534
C    -3.305023  -1.163736  5.101367
H    -4.255905  0.746829  5.073828
H    -2.313850  -1.394177  5.510326
H    -3.499113  -1.807820  4.230860
H    -4.049019  -1.396506  5.870486
