23
Energy: -24372.9538552 eV PBE+vdW (tier 2 basis)
C    -0.077227  -0.422471  0.331971
C    -0.192142  0.387352  1.611299
O    0.785652  0.854800  2.186093
H    0.510995  0.149989  -0.395111
H    -1.042452  -0.689362  -0.115971
H    0.480199  -1.342807  0.548452
N    -1.470574  0.578429  2.070507
C    -1.779386  1.211692  3.347215
C    -1.034580  2.551558  3.589816
O    -0.496853  2.777640  4.669022
H    -2.226922  0.090640  1.605747
H    -2.854849  1.451873  3.309545
C    -1.542031  0.281176  4.545774
S    -2.556531  -1.237896  4.506685
H    -1.824381  0.798908  5.468853
H    -0.480911  0.026228  4.631785
H    -1.846752  -1.889712  3.556383
N    -1.095171  3.510426  2.617668
C    -1.683919  3.465843  1.292542
H    -0.548464  4.330702  2.860404
H    -1.032700  2.977525  0.550846
H    -1.871624  4.494578  0.962341
H    -2.648780  2.944681  1.302926
