23
Energy: -24372.373907 eV PBE+vdW (tier 2 basis)
C    -2.547396  -0.876270  0.290011
C    -1.459838  -0.527717  1.283112
O    -0.262670  -0.552720  0.979426
H    -2.357850  -1.880587  -0.107757
H    -2.488002  -0.174636  -0.551637
H    -3.559373  -0.839548  0.711273
N    -1.883033  -0.174308  2.531859
C    -0.965184  0.231073  3.594523
C    -0.390582  -1.006808  4.341129
O    -0.722260  -1.292866  5.490521
H    -2.859741  -0.303430  2.773225
H    -0.134431  0.752783  3.097195
C    -1.658125  1.177886  4.567786
S    -2.013145  2.833314  3.883300
H    -0.995802  1.361092  5.421862
H    -2.569365  0.724592  4.979723
H    -2.760258  2.422028  2.832597
N    0.497701  -1.705970  3.588619
C    1.104497  -2.942629  4.040721
H    0.621874  -1.399514  2.620514
H    0.859493  -3.074405  5.099859
H    2.195878  -2.903557  3.925506
H    0.722612  -3.807802  3.478633
