23
Energy: -24373.3215502 eV PBE+vdW (tier 2 basis)
C    -0.031100  0.089555  -0.001460
C    0.001367  -0.031407  1.506356
O    1.067125  -0.130812  2.129126
H    0.594615  0.940136  -0.298196
H    -1.039780  0.222975  -0.409816
H    0.414589  -0.812567  -0.439194
N    -1.210138  -0.042617  2.128381
C    -1.346307  0.048969  3.579616
C    -1.175599  -1.349847  4.254599
O    -2.128809  -1.955924  4.742360
H    -2.028506  0.229406  1.589412
H    -0.538650  0.703897  3.946730
C    -2.710202  0.618277  3.977735
S    -3.302575  2.039605  2.996756
H    -2.696874  0.877368  5.041610
H    -3.481016  -0.154026  3.855010
H    -2.256419  2.866363  3.238006
N    0.105639  -1.789058  4.249420
C    0.476013  -3.101693  4.741754
H    0.766233  -1.247641  3.680697
H    1.423004  -3.044210  5.292811
H    0.589088  -3.828227  3.922364
H    -0.313607  -3.456825  5.412106
