23
Energy: -24373.2093733 eV PBE+vdW (tier 2 basis)
C    0.230622  1.100792  0.681747
C    -0.826154  0.561958  1.624496
O    -1.954251  0.254585  1.239822
H    0.421299  0.350977  -0.096151
H    1.175851  1.351390  1.177949
H    -0.162017  1.995344  0.182753
N    -0.444948  0.472840  2.938523
C    -1.252313  -0.206294  3.937890
C    -1.554984  0.705459  5.150022
O    -1.164531  0.419607  6.284962
H    0.540558  0.568350  3.176440
H    -2.201151  -0.451331  3.432290
C    -0.596563  -1.521716  4.382357
S    1.162773  -1.380454  4.873780
H    -0.598336  -2.220345  3.536351
H    -1.161611  -1.969616  5.206505
H    0.905044  -0.661390  5.993527
N    -2.283609  1.832410  4.921591
C    -2.833281  2.343783  3.676420
H    -2.399770  2.397284  5.757971
H    -3.043660  1.532308  2.971237
H    -2.147989  3.049898  3.182450
H    -3.776241  2.862068  3.888738
