23
Energy: -24373.1796396 eV PBE+vdW (tier 2 basis)
C    -0.225420  0.990218  0.097825
C    -0.247325  -0.045262  1.204760
O    0.640672  -0.886524  1.331621
H    0.724006  1.536915  0.147467
H    -1.054725  1.706389  0.144910
H    -0.254465  0.471732  -0.868843
N    -1.317424  0.035418  2.060572
C    -1.540296  -0.950125  3.110175
C    -2.683557  -1.884264  2.664253
O    -3.837566  -1.453272  2.588365
H    -2.099987  0.632344  1.812773
H    -0.592513  -1.487038  3.219436
C    -1.897212  -0.267401  4.432642
S    -2.074905  -1.442689  5.823434
H    -2.821631  0.314821  4.335686
H    -1.085120  0.411190  4.721430
H    -3.294357  -1.907890  5.463904
N    -2.357803  -3.157272  2.326712
C    -1.054954  -3.807892  2.421384
H    -3.155432  -3.718393  2.042716
H    -1.110983  -4.761747  1.886156
H    -0.775177  -4.013625  3.465383
H    -0.272104  -3.199923  1.950634
