23
Energy: -24372.4244245 eV PBE+vdW (tier 2 basis)
C    -2.762878  2.353782  1.544579
C    -1.776566  1.232897  1.810670
O    -0.909608  0.909681  0.998356
H    -3.327223  2.115484  0.634422
H    -2.203467  3.277085  1.349829
H    -3.466036  2.526488  2.368205
N    -1.912180  0.606617  3.016953
C    -1.097230  -0.526328  3.397015
C    -1.889964  -1.296887  4.466887
O    -2.761881  -0.738896  5.137412
H    -2.661974  0.829875  3.669050
H    -0.924640  -1.154043  2.509605
C    0.281673  -0.037203  3.909758
S    1.537733  -1.331613  4.204205
H    0.161822  0.576348  4.810626
H    0.714093  0.591175  3.121643
H    1.139053  -1.678591  5.449218
N    -1.548281  -2.602745  4.601370
C    -2.111408  -3.463885  5.624753
H    -0.755076  -2.932931  4.058745
H    -2.465731  -4.404932  5.184836
H    -2.956836  -2.937311  6.078688
H    -1.375398  -3.694067  6.409176
