23
Energy: -24373.1077727 eV PBE+vdW (tier 2 basis)
C    -0.048441  -0.587054  0.786023
C    -0.309969  0.073257  2.125836
O    0.525229  0.100981  3.022575
H    -0.183318  0.112346  -0.050769
H    -0.725450  -1.436359  0.617442
H    0.982657  -0.949026  0.787581
N    -1.538855  0.686827  2.301180
C    -2.723449  0.543323  1.463096
C    -3.470669  1.892044  1.308343
O    -4.686537  1.940604  1.127770
H    -1.682780  0.992056  3.262659
H    -2.385445  0.273097  0.451915
C    -3.664142  -0.573772  1.954531
S    -4.733401  -1.297579  0.662749
H    -4.280683  -0.225405  2.793011
H    -3.051478  -1.412116  2.309476
H    -5.425608  -0.155367  0.435432
N    -2.667546  2.987461  1.351698
C    -3.164185  4.337658  1.170733
H    -1.685083  2.831556  1.552277
H    -2.699675  4.815806  0.297296
H    -2.967949  4.954319  2.058565
H    -4.245735  4.276597  1.010691
