23
Energy: -24372.846335 eV PBE+vdW (tier 2 basis)
C    0.108878  0.196550  0.542394
C    -0.166082  -0.163968  1.986151
O    0.734301  -0.301337  2.809523
H    -0.540140  -0.313526  -0.179187
H    1.156073  -0.035402  0.330193
H    -0.037576  1.278786  0.413135
N    -1.479431  -0.299008  2.393086
C    -2.718979  -0.335274  1.617229
C    -2.710285  -1.403053  0.493216
O    -2.935140  -1.104015  -0.678634
H    -1.550720  -0.474783  3.390487
H    -3.492436  -0.638626  2.340774
C    -3.145361  1.019287  1.044036
S    -3.118445  2.263506  2.395258
H    -4.159746  0.935287  0.641255
H    -2.485092  1.326342  0.226889
H    -4.043608  3.078767  1.840268
N    -2.452283  -2.690883  0.861721
C    -2.209620  -3.241409  2.186154
H    -2.435260  -3.329229  0.072480
H    -2.381479  -4.322748  2.146529
H    -2.909237  -2.828493  2.925262
H    -1.183326  -3.062477  2.536897
