23
Energy: -24373.1436009 eV PBE+vdW (tier 2 basis)
C    -0.366248  0.042824  -0.290980
C    0.158592  -0.058517  1.133360
O    1.359730  -0.048771  1.383082
H    0.493164  0.047933  -0.966146
H    -0.935415  0.972574  -0.437678
H    -1.024610  -0.795610  -0.557882
N    -0.772307  -0.153910  2.138887
C    -2.209907  -0.085074  2.032070
C    -2.730313  0.489913  3.375160
O    -1.991871  0.575674  4.354993
H    -0.419919  -0.085131  3.095838
H    -2.503540  0.596249  1.218454
C    -2.820772  -1.486883  1.747314
S    -4.538192  -1.490286  1.110162
H    -2.853190  -2.081059  2.670476
H    -2.181718  -2.026074  1.039411
H    -4.250578  -0.954106  -0.100256
N    -4.032807  0.868672  3.368360
C    -4.712011  1.324225  4.569233
H    -4.589922  0.598618  2.558596
H    -5.238021  0.504018  5.080899
H    -5.436620  2.105833  4.312095
H    -3.963663  1.734219  5.254690
