23
Energy: -24372.2181432 eV PBE+vdW (tier 2 basis)
C    1.041154  1.685029  1.219934
C    -0.189484  1.186921  1.951087
O    -1.319890  1.295776  1.480602
H    0.967069  2.774418  1.108839
H    1.049211  1.253318  0.212020
H    1.984185  1.440816  1.723753
N    0.052394  0.590275  3.164997
C    -1.034721  0.192211  4.046487
C    -1.256016  1.302693  5.094867
O    -0.377275  1.557616  5.921165
H    0.960926  0.728840  3.597417
H    -1.907563  0.053899  3.400033
C    -0.717786  -1.120057  4.773092
S    -0.608247  -2.572835  3.675743
H    -1.534638  -1.356097  5.468222
H    0.193935  -1.013613  5.374323
H    0.338331  -2.061779  2.854490
N    -2.437621  1.974013  5.058215
C    -3.528839  1.837999  4.099045
H    -2.520743  2.681543  5.782394
H    -3.145105  1.755814  3.074233
H    -4.149017  2.739146  4.156218
H    -4.170261  0.971055  4.318824
