23
Energy: -24372.7529218 eV PBE+vdW (tier 2 basis)
C    0.048993  1.013242  0.380957
C    0.125470  0.272134  1.696569
O    1.151095  0.268044  2.371375
H    0.697525  1.891298  0.454877
H    -0.959332  1.330415  0.099737
H    0.435245  0.352904  -0.407013
N    -0.961956  -0.459933  2.136019
C    -2.307277  -0.628149  1.624922
C    -2.343373  -0.892353  0.094852
O    -1.491933  -1.590658  -0.439848
H    -0.738322  -0.965112  2.988197
H    -2.645965  -1.603197  2.021615
C    -3.318823  0.385019  2.214724
S    -3.055908  2.172262  1.933062
H    -3.256577  0.307663  3.308717
H    -4.351420  0.103801  1.958311
H    -3.258482  2.181912  0.594209
N    -3.406998  -0.364085  -0.580018
C    -3.633325  -0.621511  -1.991095
H    -4.099936  0.168735  -0.070717
H    -3.760074  0.319180  -2.542944
H    -4.521293  -1.250120  -2.148736
H    -2.754440  -1.149089  -2.375244
