23
Energy: -24372.2835673 eV PBE+vdW (tier 2 basis)
C    0.062471  -1.804332  0.143185
C    0.185519  -1.118608  1.490465
O    1.266536  -0.970634  2.058969
H    0.494391  -2.809597  0.220238
H    0.658818  -1.247723  -0.590521
H    -0.969437  -1.882985  -0.219834
N    -0.990084  -0.675669  2.030886
C    -1.047596  -0.007640  3.317954
C    -2.425841  -0.331496  3.913251
O    -3.427417  -0.296415  3.192764
H    -1.880069  -0.798663  1.555804
H    -0.218698  -0.389475  3.926272
C    -0.866675  1.516285  3.128416
S    -0.780058  2.513099  4.655806
H    -1.656635  1.906955  2.475390
H    0.100113  1.679961  2.636194
H    -2.092340  2.433851  4.977209
N    -2.499989  -0.633615  5.235299
C    -1.405772  -0.828329  6.179876
H    -3.442602  -0.854274  5.542816
H    -0.740501  0.043401  6.198443
H    -0.818338  -1.730448  5.953282
H    -1.836797  -0.944648  7.179838
