23
Energy: -24372.1736598 eV PBE+vdW (tier 2 basis)
C    -0.146989  0.564810  0.155952
C    -0.511320  0.482452  1.623933
O    -0.951640  1.450168  2.246003
H    -1.069330  0.703328  -0.423146
H    0.373141  -0.324727  -0.219796
H    0.480696  1.448513  -0.005580
N    -0.330035  -0.742972  2.203175
C    -0.698648  -1.016366  3.579503
C    0.591262  -1.243874  4.400084
O    1.204642  -2.308821  4.310804
H    0.066440  -1.499586  1.657332
H    -1.238072  -0.123428  3.917222
C    -1.599671  -2.249885  3.723468
S    -3.110983  -2.224612  2.705493
H    -1.859001  -2.389853  4.780665
H    -1.052457  -3.149520  3.411072
H    -3.655701  -1.108787  3.244059
N    1.027224  -0.220892  5.183353
C    0.436097  1.097249  5.382928
H    1.879539  -0.442692  5.690019
H    -0.331257  1.092965  6.172746
H    -0.006098  1.478419  4.454462
H    1.229160  1.791112  5.684249
