30
Energy: -180631.2001582  eV PBE+vdW (tier 2 basis)
C    1.588482  -1.481328  1.155435
C    0.771305  -0.869253  2.242706
O    1.226865  -0.840356  3.423738
H    2.574517  -0.998240  1.132552
H    1.120305  -1.402979  0.168447
H    1.760760  -2.540111  1.394327
N    -0.449674  -0.355453  1.920116
C    -1.231972  0.281539  2.961170
C    -2.072843  -0.722385  3.781843
O    -1.642893  -1.086076  4.922737
H    -0.772069  -0.425275  0.958613
H    -0.425867  0.570704  3.633632
C    -1.845859  1.669304  2.765381
C    -1.995870  2.337047  4.154568
S    -0.556870  2.384907  5.333045
C    0.713807  3.303232  4.412140
H    -2.839080  1.667006  2.293514
H    -1.185394  2.261233  2.117122
H    -2.783901  1.864545  4.757673
H    -2.267200  3.396698  4.047833
H    1.025553  2.794929  3.494552
H    1.566813  3.418370  5.090930
H    0.298635  4.293296  4.186977
N    -3.206822  -1.182044  3.281206
C    -4.078875  -2.169601  3.928745
H    -3.499263  -0.835870  2.370161
H    -5.056141  -1.717427  4.135651
H    -3.617434  -2.495977  4.863116
H    -4.212950  -3.027872  3.260199
Cd    0.307312  -0.137592  5.385718
