30
Energy: -180630.9062002  eV PBE+vdW (tier 2 basis)
C    -0.838148  -1.452249  -1.550085
C    -0.863947  -0.248221  -0.681021
O    0.065882  0.610750  -0.715880
H    -1.496001  -2.249519  -1.187268
H    0.181147  -1.809146  -1.727328
H    -1.249191  -1.136496  -2.526144
N    -1.957490  0.036668  0.106521
C    -2.543103  -0.664830  1.256694
C    -2.686030  0.435436  2.348356
O    -1.848117  1.384727  2.437836
H    -2.088273  1.047253  0.180414
H    -3.552386  -1.028004  1.007750
C    -1.753567  -1.895192  1.798032
C    -0.217828  -1.934647  1.850573
S    0.653735  -0.701958  2.920937
C    2.378654  -1.252454  2.751134
H    -2.029234  -2.762220  1.179716
H    -2.162208  -2.115517  2.794167
H    0.245203  -1.902877  0.857064
H    0.064263  -2.900389  2.295242
H    2.991203  -0.521461  3.291324
H    2.685684  -1.315818  1.702753
H    2.458537  -2.227815  3.246155
N    -3.716512  0.333559  3.169460
C    -4.003224  1.242033  4.284600
H    -4.395547  -0.403195  2.988545
H    -4.247084  0.650814  5.173983
H    -4.858471  1.880671  4.030599
H    -3.127251  1.864879  4.477691
Cd    0.169379  1.297941  1.427295
