30
Energy: -180631.1072218  eV PBE+vdW (tier 2 basis)
C    0.494995  0.461101  0.570644
C    -0.126245  0.431530  1.926449
O    0.451893  1.014509  2.889087
H    0.651931  1.506691  0.272760
H    -0.105578  -0.048856  -0.190033
H    1.488664  -0.004695  0.624784
N    -1.309403  -0.230190  2.078458
C    -1.950661  -0.230658  3.378623
C    -1.413425  -1.314058  4.338764
O    -0.637350  -0.941696  5.275597
H    -1.717822  -0.691908  1.270071
H    -1.508164  0.670769  3.787119
C    -3.434628  0.155520  3.526051
C    -3.535286  1.644714  3.935927
S    -2.567201  2.267871  5.392928
C    -3.220993  1.291807  6.779884
H    -3.922174  -0.481201  4.275117
H    -4.000591  0.026175  2.592237
H    -4.570146  1.922166  4.182195
H    -3.205829  2.307657  3.122980
H    -2.739270  1.678856  7.685449
H    -3.019940  0.221802  6.672255
H    -4.298665  1.487319  6.837389
N    -1.762366  -2.577422  4.170249
C    -1.296251  -3.701846  4.990513
H    -2.407929  -2.793564  3.413855
H    -0.859889  -4.467338  4.338826
H    -2.141523  -4.134702  5.539037
H    -0.543665  -3.342358  5.695545
Cd    -0.111713  1.234135  5.080319
