30
Energy: -180629.7852751  eV PBE+vdW (tier 2 basis)
C    0.042410  -0.425349  0.231600
C    -0.138320  -0.261374  1.702468
O    0.884065  -0.086729  2.435678
H    -0.001803  -1.495953  -0.029373
H    1.040699  -0.068038  -0.042006
H    -0.718356  0.105326  -0.349453
N    -1.366718  -0.287822  2.290034
C    -2.434845  -1.272281  2.047484
C    -1.866607  -2.680619  2.390769
O    -0.808552  -2.815534  3.081932
H    -1.342400  0.054313  3.250135
H    -3.176999  -1.064995  2.835569
C    -3.165801  -1.145001  0.692562
C    -3.711177  0.277650  0.464527
S    -4.427364  0.525982  -1.184760
C    -6.103597  -0.095273  -1.009502
H    -4.015085  -1.843790  0.694727
H    -2.515523  -1.444857  -0.138911
H    -2.903481  1.019991  0.525301
H    -4.463633  0.547146  1.219762
H    -6.114492  -1.163829  -0.755546
H    -6.583912  0.047258  -1.984486
H    -6.645741  0.480014  -0.246237
N    -2.531706  -3.754344  1.996834
C    -2.145211  -5.128540  2.342570
H    -3.366816  -3.628871  1.433704
H    -2.908512  -5.807201  1.954193
H    -2.077631  -5.238751  3.430786
H    -1.176106  -5.376279  1.893710
Cd    0.899476  -1.681927  3.978265
