30
Energy: -180631.1195248  eV PBE+vdW (tier 2 basis)
C    0.706808  1.121103  1.474137
C    -0.046302  0.357701  2.510911
O    0.507539  0.095217  3.618288
H    1.066945  2.061667  1.911903
H    0.110862  1.338525  0.581308
H    1.597505  0.545204  1.186435
N    -1.321005  -0.033553  2.222838
C    -2.072444  -0.743602  3.239337
C    -1.785969  -2.260234  3.257055
O    -1.048984  -2.716743  4.192657
H    -1.704995  0.186995  1.308217
H    -1.548054  -0.378586  4.120473
C    -3.482420  -0.303742  3.651403
C    -3.721888  -0.698663  5.128683
S    -2.486675  -0.236816  6.438796
C    -2.410595  1.576624  6.333851
H    -4.292111  -0.753924  3.061396
H    -3.558762  0.784826  3.523230
H    -3.812805  -1.786326  5.257826
H    -4.656628  -0.254041  5.498343
H    -2.044883  1.932303  5.365793
H    -1.740995  1.905954  7.136851
H    -3.420990  1.955064  6.531867
N    -2.271745  -3.081801  2.342176
C    -3.108320  -2.782955  1.180650
H    -1.984305  -4.056374  2.457342
H    -3.394002  -1.728262  1.162965
H    -4.019789  -3.391533  1.216836
H    -2.560686  -3.020751  0.260221
Cd    -0.186304  -1.099277  5.437214
