30
Energy: -180629.8838604  eV PBE+vdW (tier 2 basis)
C    0.313061  0.849240  1.082139
C    -0.141459  -0.373662  1.799981
O    0.722668  -1.246147  2.139155
H    0.067332  0.762923  0.010488
H    1.402530  0.921029  1.161899
H    -0.157998  1.757745  1.471160
N    -1.446357  -0.600758  2.117246
C    -2.637881  -0.435171  1.265098
C    -2.554046  -1.494994  0.125418
O    -1.772581  -2.511858  0.193512
H    -1.557690  -1.306960  2.844601
H    -3.468647  -0.776820  1.903562
C    -2.934472  1.041233  0.894790
C    -4.420552  1.413997  0.729651
S    -4.977472  1.302250  -1.003652
C    -6.772035  1.325823  -0.837062
H    -2.360598  1.359908  0.013294
H    -2.559294  1.634099  1.738990
H    -4.564941  2.458517  1.039219
H    -5.077430  0.795549  1.358442
H    -7.177402  1.273164  -1.853740
H    -7.082090  2.270501  -0.371548
H    -7.127937  0.474213  -0.244457
N    -3.355375  -1.386415  -0.907779
C    -3.430810  -2.357495  -2.004642
H    -4.000050  -0.562861  -0.970230
H    -4.167271  -1.993316  -2.725893
H    -3.742502  -3.338575  -1.627105
H    -2.457077  -2.455139  -2.498309
Cd    -0.091963  -3.167562  1.432125
