30
Energy: -180630.3691006  eV PBE+vdW (tier 2 basis)
C    1.539823  1.039695  0.831766
C    0.438128  1.266341  1.818248
O    0.663109  0.975866  3.033664
H    2.446123  1.554907  1.174534
H    1.292231  1.364827  -0.184127
H    1.770010  -0.035532  0.817040
N    -0.730849  1.734289  1.341406
C    -2.065429  1.861198  1.972385
C    -2.150280  3.082048  2.906042
O    -1.622233  3.106187  4.067816
H    -0.726440  1.902468  0.339323
H    -2.731446  2.067340  1.126060
C    -2.599211  0.581895  2.657655
C    -3.089891  -0.511778  1.702433
S    -1.766853  -1.269506  0.708722
C    -2.629460  -2.672998  -0.018117
H    -3.459744  0.877641  3.277057
H    -1.853865  0.155437  3.344733
H    -3.858545  -0.116469  1.019075
H    -3.563678  -1.311528  2.290074
H    -2.975261  -3.356772  0.768196
H    -3.477177  -2.333019  -0.626673
H    -1.900841  -3.185455  -0.656022
N    -2.837804  4.145429  2.518089
C    -3.571624  4.377117  1.266383
H    -2.867138  4.894689  3.211851
H    -2.918858  4.258415  0.393779
H    -3.928076  5.410879  1.279321
H    -4.444717  3.717600  1.187045
Cd    -0.100983  1.803703  4.870083
