30
Energy: -180629.6846580  eV PBE+vdW (tier 2 basis)
C    -0.219962  0.139291  -0.264993
C    0.157201  -0.122710  1.152306
O    1.394869  -0.107381  1.452192
H    -1.225383  0.549903  -0.376425
H    -0.119691  -0.781060  -0.860289
H    0.515680  0.845194  -0.673604
N    -0.747999  -0.291313  2.159066
C    -1.872040  -1.234815  2.286058
C    -1.278951  -2.512870  2.939776
O    -0.079179  -2.873908  2.722516
H    -0.316141  -0.107646  3.066908
H    -2.580630  -0.775795  2.993362
C    -2.630685  -1.523044  0.968820
C    -3.966593  -2.262554  1.175715
S    -5.025983  -2.213651  -0.303168
C    -4.458334  -3.623751  -1.262448
H    -1.994849  -2.086905  0.272808
H    -2.851991  -0.552351  0.507700
H    -4.570787  -1.763558  1.948561
H    -3.831773  -3.313943  1.462715
H    -3.400366  -3.524979  -1.539291
H    -5.068799  -3.634811  -2.172969
H    -4.619488  -4.557044  -0.705653
N    -2.070247  -3.240247  3.714090
C    -1.662654  -4.486890  4.373660
H    -3.014686  -2.905165  3.887413
H    -2.557319  -4.981967  4.759936
H    -0.983041  -4.272376  5.208300
H    -1.157947  -5.143008  3.657207
Cd    1.918475  -1.870703  2.673124
