30
Energy: -180629.9027967  eV PBE+vdW (tier 2 basis)
C    -0.290935  0.073391  -0.304135
C    -0.035623  0.110927  1.162462
O    1.156194  0.057635  1.595079
H    0.017563  1.024422  -0.764116
H    -1.332694  -0.145779  -0.555944
H    0.359895  -0.697607  -0.740294
N    -1.062266  0.176911  2.053937
C    -2.168263  1.130813  1.974162
C    -1.614479  2.508814  2.425501
O    -0.536994  2.587296  3.101951
H    -0.768881  -0.008397  3.014924
H    -2.493647  1.198074  0.926447
C    -3.341503  0.669039  2.869474
C    -3.976422  -0.639403  2.363927
S    -5.128203  -1.401958  3.540378
C    -6.629226  -0.435381  3.343556
H    -4.096517  1.464157  2.913044
H    -2.971744  0.539576  3.898527
H    -4.499559  -0.489685  1.407940
H    -3.208073  -1.409790  2.209446
H    -6.477933  0.610369  3.643606
H    -6.984685  -0.485285  2.305152
H    -7.372916  -0.892737  4.006449
N    -2.274779  3.621729  2.137596
C    -3.544808  3.797409  1.431738
H    -1.839876  4.469959  2.505433
H    -3.471158  4.690841  0.802325
H    -4.368267  3.938313  2.144131
H    -3.760342  2.940822  0.786551
Cd    1.490855  1.627700  3.138653
