30
Energy: -180631.1061448  eV PBE+vdW (tier 2 basis)
C    0.620231  0.937492  1.112329
C    -0.125562  0.362698  2.268755
O    0.345077  0.479779  3.437356
H    0.759452  2.014429  1.279381
H    0.114378  0.781371  0.153548
H    1.622774  0.490134  1.075080
N    -1.306412  -0.275845  2.021477
C    -2.057767  -0.777407  3.154788
C    -1.579292  -2.164078  3.635009
O    -0.919063  -2.225609  4.724319
H    -1.636062  -0.347585  1.063064
H    -1.670346  -0.099591  3.911176
C    -3.554456  -0.475615  3.337476
C    -3.874970  -0.478812  4.847355
S    -2.851426  0.710733  5.863565
C    -3.421300  0.309309  7.542237
H    -4.223127  -1.200214  2.853729
H    -3.768212  0.509658  2.900179
H    -3.768178  -1.474944  5.296674
H    -4.904179  -0.134307  5.017114
H    -2.845007  0.942510  8.226252
H    -3.277934  -0.750045  7.775672
H    -4.480927  0.585719  7.600230
N    -1.831356  -3.269126  2.954072
C    -2.543178  -3.431538  1.686922
H    -1.432006  -4.116411  3.363868
H    -3.329580  -4.186531  1.803460
H    -1.845341  -3.764741  0.908430
H    -3.007779  -2.493210  1.373895
Cd    -0.393453  -0.208221  5.490587
