30
Energy: -180631.0574883  eV PBE+vdW (tier 2 basis)
C    0.633732  2.540510  1.471961
C    0.440379  1.174093  2.038269
O    1.334406  0.296153  1.865301
H    0.737900  2.461779  0.380949
H    1.578691  2.953225  1.850477
H    -0.185677  3.226547  1.711444
N    -0.707932  0.921383  2.730605
C    -0.897238  -0.388699  3.321315
C    -1.453093  -1.440574  2.339816
O    -0.640468  -2.319883  1.902762
H    -1.400098  1.661007  2.813542
H    0.140994  -0.691275  3.392505
C    -1.277874  -0.542911  4.806683
C    0.001148  -0.783932  5.643228
S    1.178280  -2.136818  5.163005
C    0.165575  -3.640878  5.290364
H    -1.982042  -1.375176  4.933750
H    -1.776759  0.350092  5.209993
H    -0.245108  -1.021993  6.687889
H    0.645508  0.106899  5.656675
H    0.838877  -4.484445  5.097982
H    -0.664832  -3.649803  4.578147
H    -0.198415  -3.702939  6.323108
N    -2.717020  -1.444156  1.954176
C    -3.786260  -0.526577  2.345557
H    -2.956574  -2.168826  1.274387
H    -3.484702  0.077244  3.206309
H    -4.673694  -1.104595  2.627417
H    -4.045307  0.133257  1.507792
Cd    1.472604  -1.878712  2.516591
