30
Energy: -180630.5478533  eV PBE+vdW (tier 2 basis)
C    -0.472645  -2.295594  0.462167
C    -0.296102  -1.399568  1.645501
O    0.178665  -0.237899  1.455632
H    -0.930153  -3.259178  0.710504
H    0.504008  -2.463143  -0.011742
H    -1.097234  -1.777582  -0.278978
N    -0.666799  -1.864858  2.853663
C    -0.788065  -1.100824  4.104658
C    0.551512  -1.104058  4.870103
O    1.500914  -0.327091  4.519080
H    -0.996234  -2.827577  2.877692
H    -0.963508  -0.049055  3.821376
C    -2.011832  -1.574998  4.909050
C    -3.362235  -1.238905  4.262453
S    -3.628733  0.561430  4.219635
C    -5.273130  0.671683  3.495645
H    -1.971140  -1.113467  5.906737
H    -1.970503  -2.667125  5.060347
H    -4.169106  -1.691758  4.855959
H    -3.446691  -1.636741  3.239516
H    -5.510342  1.739566  3.434547
H    -6.004789  0.169984  4.142476
H    -5.289263  0.230488  2.490784
N    0.730493  -1.922541  5.889696
C    1.975528  -2.006332  6.665696
H    -0.041547  -2.520757  6.170182
H    2.210767  -1.029862  7.104818
H    2.803656  -2.317875  6.018568
H    1.834916  -2.741857  7.461249
Cd    1.435589  0.954493  2.763987
