30
Energy: -180630.3900723  eV PBE+vdW (tier 2 basis)
C    0.169212  1.784870  1.558125
C    0.121768  0.457779  2.247717
O    0.647717  -0.540072  1.659970
H    1.218274  2.093862  1.449354
H    -0.389231  2.570845  2.077066
H    -0.228300  1.665928  0.540917
N    -0.490750  0.398105  3.443450
C    -0.912688  -0.753825  4.269056
C    0.222211  -1.331289  5.127376
O    1.311179  -1.778465  4.634709
H    -0.849733  1.291206  3.770374
H    -1.640538  -0.312990  4.961147
C    -1.656365  -1.879570  3.511198
C    -2.851432  -1.408305  2.676545
S    -4.043523  -0.491904  3.699754
C    -5.507709  -0.478266  2.651869
H    -1.995260  -2.600331  4.269961
H    -0.978597  -2.433336  2.842934
H    -3.362134  -2.284532  2.253091
H    -2.536732  -0.775169  1.833184
H    -5.292772  0.009701  1.692743
H    -6.267714  0.093154  3.196357
H    -5.866167  -1.502879  2.487352
N    0.060256  -1.398360  6.439825
C    -1.065839  -0.930189  7.260107
H    0.841570  -1.832570  6.933980
H    -1.187689  0.157416  7.185054
H    -1.997755  -1.439915  6.987467
H    -0.838918  -1.173028  8.301784
Cd    1.807716  -2.118378  2.560419
