30
Energy: -180630.6937973  eV PBE+vdW (tier 2 basis)
C    0.125677  1.296258  1.012121
C    -0.403735  0.343671  2.028187
O    0.416227  -0.104729  2.938642
H    0.641822  2.133902  1.497875
H    -0.646372  1.668430  0.331102
H    0.886990  0.763212  0.420378
N    -1.660706  -0.052459  1.943522
C    -2.391624  -1.163652  2.559354
C    -3.765766  -1.099918  1.798771
O    -4.034693  -0.052805  1.200733
H    -2.311113  0.399193  1.259974
H    -1.865209  -2.101296  2.322337
C    -2.591013  -1.130538  4.097507
C    -3.050224  0.213634  4.699267
S    -2.040645  0.602058  6.203400
C    -2.364187  2.360157  6.532898
H    -1.661512  -1.490943  4.576693
H    -3.320051  -1.909409  4.355256
H    -4.083548  0.167230  5.067003
H    -2.975865  1.053690  3.997165
H    -1.695141  2.655689  7.349858
H    -3.404211  2.414513  6.880752
H    -2.214055  2.983696  5.646832
N    -4.551996  -2.178657  1.879482
C    -5.857894  -2.268511  1.217818
H    -4.182009  -3.028745  2.294757
H    -6.586739  -2.710476  1.905514
H    -5.786646  -2.889025  0.315874
H    -6.177084  -1.261810  0.936450
Cd    0.060848  0.346513  4.919589
