30
Energy: -180630.5253484  eV PBE+vdW (tier 2 basis)
C    -0.484932  -0.865784  0.519501
C    -0.310701  -0.343691  1.907683
O    0.749877  0.315875  2.162720
H    -0.496126  -0.010969  -0.172735
H    -1.407729  -1.441113  0.391224
H    0.382050  -1.481879  0.248274
N    -1.286689  -0.576507  2.802466
C    -1.450850  0.041133  4.125013
C    -0.750601  -0.794171  5.224671
O    0.501980  -0.619440  5.464446
H    -2.039724  -1.198396  2.500915
H    -0.878769  0.983270  4.103754
C    -2.921091  0.466782  4.407802
C    -4.080133  -0.338298  3.802958
S    -3.921557  -2.147407  4.011255
C    -5.638500  -2.707344  3.935880
H    -3.031304  1.493823  4.033069
H    -3.039498  0.533046  5.497651
H    -4.201651  -0.125023  2.730920
H    -5.007027  -0.016216  4.295505
H    -6.213822  -2.282526  4.766417
H    -5.608019  -3.799265  4.020547
H    -6.078626  -2.426502  2.971679
N    -1.420605  -1.672437  5.931898
C    -0.835166  -2.504379  6.990072
H    -2.408256  -1.844569  5.672073
H    -0.350212  -1.870027  7.740497
H    -0.092904  -3.194010  6.569734
H    -1.641537  -3.074443  7.457957
Cd    1.687125  0.510465  4.087155
