30
Energy: -180630.5079583  eV PBE+vdW (tier 2 basis)
C    0.386801  1.443036  0.548720
C    0.533480  0.609347  1.782892
O    1.314022  -0.392203  1.733525
H    -0.370841  2.228681  0.636636
H    0.132823  0.784065  -0.292597
H    1.357956  1.897903  0.308600
N    -0.182041  0.967350  2.864433
C    -0.422555  0.273806  4.150097
C    0.736028  0.454338  5.148831
O    1.893126  -0.051704  4.982806
H    -0.746009  1.802686  2.732299
H    -1.284104  0.810043  4.572086
C    -0.851267  -1.206275  4.033414
C    -2.044187  -1.457952  3.103232
S    -3.485445  -0.475992  3.620449
C    -4.853332  -1.382582  2.879436
H    -1.094166  -1.546812  5.050392
H    -0.021924  -1.846104  3.685503
H    -2.318188  -2.520833  3.146937
H    -1.800304  -1.224686  2.055983
H    -5.760386  -0.819064  3.125325
H    -4.919282  -2.390306  3.310228
H    -4.734381  -1.438570  1.790087
N    0.486101  1.149389  6.245643
C    1.461158  1.377354  7.318614
H    -0.434199  1.568574  6.350883
H    0.920276  1.695467  8.213673
H    2.173406  2.158968  7.025339
H    2.007504  0.451540  7.525144
Cd    2.543951  -1.236650  3.292934
