30
Energy: -180630.1536017  eV PBE+vdW (tier 2 basis)
C    -0.012405  0.525022  -0.103077
C    0.057726  0.232486  1.360609
O    1.159521  0.458155  1.960051
H    -1.020890  0.415437  -0.513930
H    0.679576  -0.140111  -0.638131
H    0.343082  1.551101  -0.270593
N    -1.047312  -0.238791  1.963088
C    -1.344401  -0.271934  3.406008
C    -0.983996  -1.661655  3.994365
O    0.248726  -2.016237  3.941217
H    -1.874302  -0.292183  1.353156
H    -0.607568  0.386889  3.899508
C    -2.714161  0.388213  3.675466
C    -3.923862  -0.047617  2.832081
S    -3.949865  0.793807  1.210237
C    -5.442240  0.110597  0.464924
H    -2.567024  1.470890  3.544127
H    -2.945657  0.268697  4.742213
H    -4.847505  0.228510  3.361046
H    -3.964529  -1.131831  2.656505
H    -5.531415  0.577192  -0.522638
H    -6.317271  0.376716  1.071695
H    -5.369535  -0.978321  0.353317
N    -1.796750  -2.525760  4.584756
C    -3.243851  -2.591347  4.815504
H    -1.280593  -3.346060  4.911178
H    -3.773206  -2.917029  3.911931
H    -3.643895  -1.640342  5.172099
H    -3.408884  -3.341032  5.595049
Cd    1.953083  -0.753222  3.544015
