23
Energy: -565415.733964 eV PBE+vdW (tier 2 basis)
N    0.129218  0.545643  0.122087
C    0.089932  0.055300  1.405258
C    1.690369  -0.252875  1.940947
O    2.072335  0.493380  2.812710
H    0.270255  -0.053923  -0.689958
H    0.102244  1.548038  -0.061634
H    -0.222825  0.829920  2.112891
C    -0.630422  -1.290756  1.638603
C    -2.179818  -1.060552  1.566597
C    -2.657844  -0.694317  0.183767
C    -2.792511  -2.405400  2.078009
H    -0.361344  -1.675172  2.630964
H    -0.332074  -2.037096  0.882952
H    -2.453557  -0.276387  2.289319
H    -2.451720  -1.478806  -0.556858
H    -2.225418  0.258953  -0.187443
H    -3.741443  -0.491685  0.189289
H    -2.461354  -2.639535  3.095365
H    -2.551622  -3.240469  1.408882
H    -3.884150  -2.265632  2.088007
O    2.401840  -1.193872  1.397711
H    1.933525  -1.762251  0.751974
Hg    4.372773  0.413500  3.847057
