23
Energy: -565415.977606 eV PBE+vdW (tier 2 basis)
N    1.123900  0.178861  -0.014036
C    0.519811  -0.103667  1.354465
C    1.500328  -1.030240  2.150243
O    1.078759  -1.435062  3.272619
H    0.663635  0.995570  -0.445118
H    2.138187  0.362475  0.040884
H    0.570497  0.841678  1.919109
C    -0.920972  -0.581996  1.248576
C    -1.237606  -1.815295  0.349724
C    -0.484448  -3.075144  0.771383
C    -2.751367  -2.034091  0.313558
H    -1.511585  0.270815  0.871661
H    -1.262509  -0.775251  2.276685
H    -0.943424  -1.548140  -0.688918
H    -0.788523  -3.922501  0.141014
H    -0.716786  -3.358311  1.809669
H    0.609441  -2.991965  0.668610
H    -3.006744  -2.852433  -0.372586
H    -3.293347  -1.138359  -0.014578
H    -3.131519  -2.321066  1.306786
O    2.638034  -1.237991  1.667984
H    0.983624  -0.623419  -0.648902
Hg    3.067620  -2.442466  3.764166
