23
Energy: -565415.634247 eV PBE+vdW (tier 2 basis)
N    1.248045  0.219810  0.875098
C    0.434092  0.270581  2.106629
C    1.306314  -0.081931  3.343594
O    2.316800  -0.796278  3.279153
H    0.676984  0.110477  0.031642
H    1.854316  1.040403  0.754065
H    0.127583  1.321959  2.260059
C    -0.848754  -0.609079  2.015677
C    -0.796327  -2.117800  1.652593
C    -0.463463  -2.458824  0.200448
C    -0.049640  -3.025257  2.624113
H    -1.509038  -0.100555  1.295946
H    -1.359439  -0.512919  2.985702
H    -1.860105  -2.429550  1.749847
H    -0.892553  -1.776992  -0.545673
H    -0.759863  -3.483737  -0.059219
H    0.660687  -2.469083  0.022757
H    -0.336068  -4.078725  2.507431
H    -0.141719  -2.749491  3.681854
H    1.063562  -3.037253  2.401181
O    0.951696  0.367883  4.515359
H    0.189180  0.983155  4.507473
Hg    2.470711  -1.751793  1.166269
