23
Energy: -565415.591679 eV PBE+vdW (tier 2 basis)
N    0.342352  -0.269656  0.034001
C    0.054578  -0.086203  1.470884
C    1.384978  0.052142  2.244989
O    2.417812  -0.537233  1.887741
H    -0.494820  -0.521844  -0.502517
H    0.785135  0.545742  -0.406143
H    -0.505687  0.857668  1.589337
C    -0.845389  -1.239117  2.020111
C    -0.275968  -2.667294  2.190236
C    0.464121  -2.903594  3.501183
C    -1.330995  -3.727768  1.875808
H    -1.733094  -1.259831  1.369566
H    -1.216455  -0.920464  3.005663
H    0.528039  -2.916922  1.350334
H    1.245828  -2.168037  3.724109
H    0.913141  -3.902822  3.536271
H    -0.274685  -2.851143  4.319877
H    -2.157264  -3.600010  2.599960
H    -0.935083  -4.741923  1.997318
H    -1.764715  -3.626050  0.872978
O    1.431606  0.762140  3.338051
H    0.611408  1.257122  3.543792
Hg    1.906153  -2.009903  0.136450
