23
Energy: -565415.56165 eV PBE+vdW (tier 2 basis)
N    -0.151495  -0.397091  -0.238380
C    -0.037887  -0.333170  1.225241
C    1.425018  -0.531491  1.711688
O    2.414728  -0.436158  0.969454
H    -0.362034  -1.342955  -0.582696
H    -0.849283  0.255615  -0.614080
H    -0.291632  0.697580  1.524442
C    -1.053871  -1.346576  1.852496
C    -1.506472  -1.030086  3.328331
C    -1.997402  0.396172  3.540911
C    -2.573533  -2.080818  3.660954
H    -0.651317  -2.368071  1.787188
H    -1.965664  -1.307473  1.238625
H    -0.651335  -1.229082  4.014723
H    -2.825469  0.640357  2.859832
H    -1.210497  1.157770  3.435335
H    -2.386339  0.509893  4.562177
H    -2.229371  -3.108120  3.492508
H    -3.503657  -1.913734  3.099605
H    -2.827800  -1.981923  4.731421
O    1.632325  -0.750242  2.975164
H    0.796864  -0.847056  3.494061
Hg    1.927467  0.105008  -1.228390
