23
Energy: -565415.469268 eV PBE+vdW (tier 2 basis)
N    -0.611911  0.486479  0.391076
C    0.360944  -0.096233  1.406427
C    1.749324  0.347083  0.875641
O    2.867645  0.151272  1.554800
H    -1.299973  -0.197733  0.049105
H    -1.125261  1.303927  0.749516
H    0.164868  0.427309  2.352932
C    0.213278  -1.635274  1.568697
C    -0.363602  -2.170389  2.901151
C    -0.583143  -3.682560  2.803228
C    0.449401  -1.807165  4.149893
H    1.190971  -2.117536  1.386289
H    -0.406444  -2.024145  0.746353
H    -1.344333  -1.681738  3.074310
H    -1.012053  -4.079593  3.731084
H    0.357134  -4.218967  2.605618
H    -1.279213  -3.929612  1.990927
H    0.077801  -2.262305  5.085755
H    0.512976  -0.726651  4.367146
H    1.474637  -2.342264  4.124238
O    1.841053  0.908677  -0.202366
H    -0.018343  0.816179  -0.412156
Hg    2.878049  -0.981630  3.319644
