23
Energy: -565415.453433 eV PBE+vdW (tier 2 basis)
N    -0.183786  0.597614  0.320025
C    -0.095943  0.349623  1.825003
C    1.307897  0.879406  2.188690
O    1.626376  1.391440  3.359430
H    -0.861930  -0.026924  -0.140219
H    -0.442799  1.570248  0.095392
H    -0.888537  0.953685  2.285822
C    -0.315277  -1.165073  2.067744
C    -0.463573  -1.716251  3.513419
C    0.837137  -1.964058  4.275001
C    -1.537983  -1.063802  4.364072
H    0.494644  -1.718025  1.567966
H    -1.247578  -1.420368  1.538281
H    -0.869245  -2.737750  3.337257
H    1.614709  -2.440496  3.664438
H    0.666590  -2.585245  5.162697
H    1.294202  -1.014592  4.649733
H    -2.463089  -0.796187  3.835875
H    -1.182709  -0.063412  4.821527
H    -1.780919  -1.652815  5.257852
O    2.194989  0.866560  1.348075
H    0.761304  0.435930  -0.084729
Hg    0.471628  1.210892  5.138179
