23
Energy: -565416.108408 eV PBE+vdW (tier 2 basis)
N    -0.128492  -0.937063  0.884368
C    0.479763  -0.427963  2.175596
C    1.969304  0.005834  1.878110
O    2.483454  0.782437  2.730162
H    0.494921  -1.621139  0.426621
H    -1.027486  -1.410652  1.112329
H    -0.066425  0.481112  2.459693
C    0.436453  -1.491562  3.264396
C    -1.013601  -1.787848  3.819194
C    -1.631084  -0.595566  4.537687
C    -1.963903  -2.446106  2.819505
H    1.048615  -1.132273  4.101634
H    0.891675  -2.426258  2.901763
H    -0.762087  -2.558077  4.576083
H    -1.994856  0.184276  3.850345
H    -0.940814  -0.137578  5.257100
H    -2.516982  -0.924380  5.101746
H    -1.499079  -3.259008  2.241039
H    -2.466958  -1.721316  2.148332
H    -2.808330  -2.908631  3.353605
O    2.511924  -0.449312  0.851139
H    -0.317108  -0.186457  0.203691
Hg    4.516098  0.793529  1.664864
