23
Energy: -565415.583054 eV PBE+vdW (tier 2 basis)
N    1.706616  -1.373798  1.005650
C    0.688899  -0.680533  1.792041
C    1.271140  0.183910  2.964970
O    2.419007  0.073913  3.399587
H    1.535082  -2.383096  0.931911
H    1.844324  -0.985715  0.065774
H    0.224285  0.066966  1.125877
C    -0.356000  -1.662729  2.389194
C    -1.452391  -2.080978  1.358171
C    -2.357392  -0.925764  0.936905
C    -0.904982  -2.880661  0.188450
H    -0.836689  -1.202889  3.263051
H    0.172211  -2.552440  2.769267
H    -2.056686  -2.776472  1.979743
H    -2.741020  -0.363865  1.799592
H    -3.233587  -1.311675  0.398495
H    -1.867310  -0.226160  0.241654
H    -1.726127  -3.317954  -0.404645
H    -0.271742  -3.725803  0.498872
H    -0.370532  -2.249600  -0.549301
O    0.479515  1.058083  3.519683
H    -0.412102  1.119940  3.116999
Hg    3.822482  -1.258680  2.097060
