23
Energy: -565415.977883 eV PBE+vdW (tier 2 basis)
N    1.120605  -1.605345  -0.678486
C    0.292279  -0.746559  0.266458
C    1.253647  -0.047332  1.292664
O    0.698584  0.749372  2.101620
H    2.022211  -1.166901  -0.920826
H    1.311492  -2.527569  -0.241024
H    -0.088742  0.098396  -0.328285
C    -0.862176  -1.525818  0.877259
C    -0.593488  -2.728154  1.846200
C    0.226027  -3.862791  1.215568
C    -0.021902  -2.284828  3.193575
H    -1.450441  -1.915526  0.026418
H    -1.498598  -0.789668  1.388252
H    -1.606144  -3.119539  2.025950
H    -0.142483  -4.164872  0.223482
H    0.162182  -4.762724  1.843285
H    1.311326  -3.644261  1.176293
H    -0.592156  -1.462340  3.645323
H    1.040463  -2.001286  3.131787
H    -0.069842  -3.127350  3.900388
O    2.481199  -0.277683  1.201397
H    0.596434  -1.778948  -1.549329
Hg    2.701525  1.361726  3.014033
