23
Energy: -565416.093879 eV PBE+vdW (tier 2 basis)
N    -0.148001  0.895397  1.412185
C    0.852048  -0.061616  2.038725
C    2.106676  -0.150713  1.087586
O    3.152368  -0.624075  1.608330
H    0.188463  1.869689  1.390942
H    -0.367240  0.623002  0.440481
H    1.193060  0.399561  2.974908
C    0.240352  -1.434108  2.260825
C    -1.001832  -1.419549  3.239001
C    -1.465163  -2.875717  3.355276
C    -0.679406  -0.793778  4.593288
H    1.021847  -2.073841  2.694099
H    -0.063886  -1.884701  1.303793
H    -1.816832  -0.852862  2.747166
H    -2.387963  -2.896696  3.960861
H    -0.724165  -3.500696  3.871658
H    -1.701528  -3.328174  2.384335
H    0.162648  -1.301646  5.084347
H    -1.546872  -0.893796  5.260483
H    -0.454549  0.282892  4.549749
O    1.965144  0.244702  -0.089853
H    -1.023752  0.870347  1.960990
Hg    4.315584  -0.487620  -0.375176
