23
Energy: -565415.445506 eV PBE+vdW (tier 2 basis)
N    -0.317623  -0.003421  -0.209956
C    0.095305  -0.186190  1.188981
C    1.599803  0.132886  1.420174
O    2.399712  0.434166  0.523486
H    -0.479095  -0.896387  -0.691125
H    -1.153934  0.582932  -0.312601
H    -0.435937  0.574990  1.783573
C    -0.339927  -1.636967  1.619675
C    -0.154899  -2.103817  3.107598
C    1.143998  -2.842048  3.399730
C    -0.566890  -1.086081  4.168738
H    0.163606  -2.365584  0.964888
H    -1.413588  -1.664664  1.388078
H    -0.950737  -2.882927  3.125354
H    1.068573  -3.349197  4.375254
H    2.031977  -2.195323  3.492193
H    1.360367  -3.608274  2.645393
H    -0.718321  -1.593347  5.132167
H    -1.496445  -0.555958  3.923634
H    0.196989  -0.316901  4.417282
O    2.034186  0.125410  2.644438
H    1.335907  -0.110721  3.306876
Hg    1.426680  0.927800  -1.518216
