37
Energy: -41907.5019683 eV PBE+vdW (tier 2 basis)
C    -0.464199  1.206829  0.320305
C    -0.192063  0.602293  1.664698
O    0.932784  0.097314  1.908686
H    -0.288495  0.445814  -0.451695
H    0.257896  2.014834  0.141621
H    -1.478260  1.603736  0.207401
N    -1.199321  0.635408  2.562255
C    -1.334546  0.131410  3.944799
C    -0.259708  0.693564  4.892047
O    0.973748  0.486500  4.719016
H    -2.047643  1.068417  2.209762
H    -2.288315  0.568503  4.254586
C    -1.534788  -1.436082  4.090427
C    -0.373429  -2.191321  4.647339
C    -0.090324  -2.371135  5.986996
C    0.777945  -2.666278  3.931573
N    1.186927  -2.857864  6.143066
C    1.769859  -3.014466  4.911509
C    1.091892  -2.818263  2.561548
C    3.087352  -3.336697  4.551518
C    2.397620  -3.157887  2.202724
C    3.394100  -3.375938  3.187584
H    -1.831952  -1.816233  3.104177
H    -2.404887  -1.578505  4.744261
H    -0.708594  -2.170588  6.856471
H    1.610637  -3.106487  7.031013
H    0.337346  -2.653682  1.794035
H    3.844790  -3.566696  5.300738
H    2.656133  -3.274729  1.150951
H    4.405684  -3.632649  2.876055
N    -0.666572  1.393562  5.949745
C    -2.024752  1.792741  6.336654
H    0.095277  1.722684  6.542118
H    -2.464421  2.481154  5.604110
H    -1.958554  2.317408  7.293840
H    -2.676748  0.922169  6.476038
Ca    2.356579  -0.609835  3.382029
