37
Energy: -41906.3864001 eV PBE+vdW (tier 2 basis)
C    -0.545491  0.870360  0.002904
C    -0.910882  0.384219  1.368134
O    -0.294468  0.832627  2.394852
H    -1.154403  0.425676  -0.791072
H    -0.647348  1.963081  -0.040015
H    0.511585  0.638130  -0.188170
N    -1.876657  -0.522910  1.493574
C    -2.316601  -1.162458  2.739377
C    -2.735274  -2.657435  2.503968
O    -3.626267  -3.140950  3.185915
H    -2.357258  -0.804137  0.639859
H    -1.435589  -1.193469  3.397385
C    -3.466101  -0.405395  3.462792
C    -2.991687  0.387350  4.637472
C    -2.814112  -0.087051  5.924463
C    -2.532450  1.745392  4.656032
N    -2.225657  0.875833  6.717797
C    -2.020338  2.011616  5.980165
C    -2.491005  2.781319  3.690961
C    -1.378190  3.219629  6.298740
C    -1.866721  3.989743  4.014921
C    -1.288878  4.195989  5.296630
H    -4.167132  -1.185898  3.793058
H    -4.004202  0.226999  2.744658
H    -3.069853  -1.058892  6.336897
H    -2.047530  0.775963  7.712803
H    -2.935434  2.637484  2.706114
H    -0.978294  3.408673  7.295501
H    -1.837209  4.797989  3.284403
H    -0.814370  5.150206  5.522537
N    -2.046546  -3.329383  1.551500
C    -2.290303  -4.750089  1.292345
H    -1.211117  -2.916028  1.152594
H    -3.364939  -4.944621  1.358781
H    -1.774599  -5.383992  2.025825
H    -1.936410  -4.993996  0.286173
Ca    0.027732  2.071426  4.081127
