37
Energy: -41907.083914 eV PBE+vdW (tier 2 basis)
C    -0.585692  0.084274  -0.353825
C    -1.012704  0.528463  1.003074
O    -1.405140  1.714256  1.212182
H    -1.404603  0.268027  -1.062531
H    -0.301193  -0.972119  -0.394696
H    0.262159  0.700676  -0.682951
N    -0.981465  -0.363056  2.025047
C    -1.452925  0.069805  3.332792
C    -0.373383  0.852435  4.111460
O    -0.448521  2.117949  4.118462
H    -0.676294  -1.315787  1.846026
H    -2.169804  0.841064  3.049889
C    -2.339631  -0.840753  4.212673
C    -2.991537  0.138437  5.158765
C    -2.784809  0.274038  6.517040
C    -3.681029  1.333649  4.742438
N    -3.279372  1.480538  6.954160
C    -3.798464  2.177277  5.892402
C    -4.200173  1.796809  3.508944
C    -4.296698  3.481402  5.812931
C    -4.701799  3.105497  3.428528
C    -4.715792  3.948132  4.565317
H    -1.781539  -1.615683  4.754415
H    -3.069628  -1.354037  3.569206
H    -2.307408  -0.407881  7.213820
H    -3.273397  1.794258  7.918969
H    -4.291831  1.128601  2.648889
H    -4.366112  4.117613  6.695038
H    -5.168819  3.449730  2.503617
H    -5.122690  4.954634  4.480196
N    0.599056  0.188683  4.716720
C    1.709309  0.799726  5.449846
H    0.579742  -0.826760  4.666962
H    2.659542  0.543013  4.966384
H    1.720127  0.427487  6.480913
H    1.579108  1.884079  5.450970
Ca    -1.933590  3.152527  2.844927
