37
Energy: -41907.7381741 eV PBE+vdW (tier 2 basis)
C    -3.672183  1.261396  1.360067
C    -2.500359  0.612432  2.035011
O    -1.351310  0.733479  1.538011
H    -4.635269  1.051306  1.836570
H    -3.513064  2.348394  1.344553
H    -3.707048  0.931257  0.313964
N    -2.762474  -0.064388  3.175080
C    -1.905349  -0.834973  4.099601
C    -0.712798  -0.021359  4.638315
O    0.209384  0.428495  3.906989
H    -3.742097  -0.053302  3.442824
H    -2.560636  -1.010781  4.962715
C    -1.532157  -2.272412  3.585714
C    -0.951755  -2.337686  2.213029
C    -1.663949  -2.478518  1.038453
C    0.407061  -2.077874  1.825276
N    -0.846834  -2.250069  -0.043426
C    0.420520  -1.961409  0.393567
C    1.619150  -1.902627  2.533690
C    1.556712  -1.522598  -0.305026
C    2.753902  -1.484096  1.837261
C    2.712103  -1.260247  0.436543
H    -2.459594  -2.859932  3.620076
H    -0.861784  -2.723313  4.332314
H    -2.712767  -2.717611  0.893044
H    -1.132449  -2.322341  -1.014433
H    1.665475  -2.068782  3.609281
H    1.549524  -1.402129  -1.388241
H    3.694770  -1.345085  2.368718
H    3.612548  -0.928362  -0.078449
N    -0.681776  0.157492  5.956136
C    0.390677  0.866274  6.656741
H    -1.455766  -0.190717  6.513484
H    0.295170  1.950029  6.512559
H    1.364321  0.539159  6.277395
H    0.319616  0.637669  7.723405
Ca    0.804484  0.537230  1.788189
