37
Energy: -41906.4845931 eV PBE+vdW (tier 2 basis)
C    -0.017691  1.307511  0.455813
C    -0.411184  0.544034  1.675545
O    0.224412  0.728021  2.777435
H    1.024610  1.061703  0.207636
H    -0.651791  1.083466  -0.407406
H    -0.051027  2.384876  0.665591
N    -1.409456  -0.315050  1.606828
C    -1.833865  -1.286275  2.606799
C    -2.507627  -2.395557  1.723480
O    -2.873922  -2.076018  0.590955
H    -1.889855  -0.529295  0.708658
H    -0.951291  -1.677747  3.135356
C    -2.876895  -0.743363  3.622659
C    -2.419590  0.289078  4.615239
C    -1.983542  0.043193  5.907129
C    -2.473587  1.734074  4.471409
N    -1.713885  1.249775  6.562270
C    -2.071413  2.308977  5.716319
C    -2.813537  2.592298  3.402226
C    -1.984413  3.694733  5.919896
C    -2.739641  3.962046  3.605200
C    -2.330355  4.505739  4.844241
H    -3.268989  -1.606119  4.178298
H    -3.727516  -0.340699  3.054256
H    -1.886124  -0.898478  6.440241
H    -1.655316  1.329414  7.575612
H    -3.143707  2.186697  2.446740
H    -1.696629  4.119167  6.881471
H    -3.014578  4.640604  2.798901
H    -2.300162  5.587746  4.965395
N    -2.666711  -3.603183  2.283615
C    -3.309088  -4.725401  1.596268
H    -2.259617  -3.780462  3.195763
H    -4.094173  -5.151731  2.230966
H    -2.571515  -5.501668  1.358695
H    -3.751186  -4.353232  0.668514
Ca    0.133213  1.316947  4.767220
