37
Energy: -41906.1265852 eV PBE+vdW (tier 2 basis)
C    -0.516900  -0.200065  -0.247868
C    -0.525307  -0.156350  1.242701
O    0.523321  0.193829  1.882516
H    -1.492275  -0.452309  -0.676236
H    0.217574  -0.951324  -0.572945
H    -0.183328  0.767277  -0.645022
N    -1.628046  -0.497559  1.905612
C    -1.712931  -0.705907  3.358589
C    -2.688556  -1.876222  3.675801
O    -2.253873  -2.834693  4.294409
H    -2.416037  -0.831451  1.352293
H    -0.744596  -1.103760  3.687950
C    -2.047606  0.571430  4.180441
C    -0.874960  1.432432  4.564226
C    -0.005304  1.184199  5.614946
C    -0.470741  2.703616  3.990597
N    0.946123  2.204024  5.699591
C    0.642261  3.185886  4.748995
C    -0.920641  3.461733  2.886106
C    1.309345  4.382050  4.441846
C    -0.266727  4.647348  2.585901
C    0.830438  5.102367  3.352937
H    -2.534662  0.234087  5.106342
H    -2.790962  1.178070  3.646183
H    -0.007380  0.374420  6.339970
H    1.512170  2.369579  6.529583
H    -1.773313  3.132105  2.293749
H    2.140939  4.748174  5.043511
H    -0.609550  5.253182  1.748353
H    1.304772  6.047637  3.092588
N    -3.959154  -1.755114  3.208884
C    -4.964449  -2.791704  3.463267
H    -4.301210  -0.846507  2.911345
H    -4.484581  -3.772437  3.394022
H    -5.753489  -2.715439  2.709044
H    -5.402615  -2.686876  4.464576
Ca    1.580860  1.177216  3.400738
