37
Energy: -41905.8805608 eV PBE+vdW (tier 2 basis)
C    -1.074270  -0.257740  -0.598699
C    -0.456888  -0.711569  0.680897
O    0.005774  -1.898946  0.779537
H    -0.793428  0.770916  -0.846484
H    -2.173436  -0.296522  -0.529867
H    -0.763731  -0.935214  -1.400262
N    -0.373208  0.094597  1.764197
C    -1.481024  0.899116  2.309559
C    -2.623570  -0.087434  2.701449
O    -2.442219  -1.359075  2.593612
H    0.241684  -0.287983  2.483056
H    -1.091139  1.307762  3.253142
C    -1.915564  2.127577  1.455599
C    -2.759837  3.112009  2.210215
C    -2.311372  4.061496  3.115316
C    -4.191567  3.286667  2.105514
N    -3.373829  4.788091  3.579279
C    -4.541302  4.347645  2.990436
C    -5.210570  2.672824  1.346553
C    -5.857356  4.792711  3.146127
C    -6.517699  3.114664  1.500478
C    -6.837381  4.159459  2.393253
H    -2.456299  1.800452  0.558968
H    -0.983483  2.599629  1.113218
H    -1.301605  4.291992  3.440408
H    -3.304363  5.564606  4.227116
H    -4.982004  1.883654  0.627515
H    -6.105341  5.610765  3.821387
H    -7.312527  2.663592  0.907907
H    -7.872466  4.484948  2.482444
N    -3.737176  0.424572  3.160102
C    -4.931513  -0.303892  3.577352
H    -3.805535  1.457746  3.135851
H    -5.802183  0.185626  3.125613
H    -5.029350  -0.262447  4.669733
H    -4.874945  -1.345243  3.252587
Ca    -1.284118  -3.056552  2.056867
