37
Energy: -41907.4533867 eV PBE+vdW (tier 2 basis)
C    -0.008560  0.775477  0.497505
C    0.072211  0.454336  1.957065
O    1.187268  0.260401  2.501206
H    0.568812  1.689794  0.304428
H    -1.029765  0.911972  0.127389
H    0.477359  -0.031312  -0.067463
N    -1.090414  0.378583  2.639958
C    -1.349080  0.110485  4.071490
C    -0.588472  1.090779  4.986294
O    0.639382  0.937499  5.240399
H    -1.924585  0.554543  2.087883
H    -2.416240  0.334800  4.177210
C    -1.229475  -1.380836  4.519535
C    0.121954  -2.019886  4.668430
C    0.829157  -2.132323  5.854987
C    0.921090  -2.673200  3.649242
N    2.061919  -2.725958  5.615112
C    2.124537  -3.118575  4.273307
C    0.730005  -2.943477  2.277062
C    3.131795  -3.805820  3.581227
C    1.718159  -3.631581  1.593291
C    2.905236  -4.053268  2.234321
H    -1.831794  -1.965069  3.809086
H    -1.757012  -1.447618  5.481992
H    0.554983  -1.821250  6.858710
H    2.653905  -3.109780  6.347805
H    -0.186959  -2.641799  1.771919
H    4.033250  -4.159668  4.080338
H    1.577756  -3.869330  0.539894
H    3.652130  -4.601226  1.661875
N    -1.258828  2.101723  5.533022
C    -2.667568  2.476815  5.368781
H    -0.690764  2.695130  6.137506
H    -3.338859  1.711668  5.778385
H    -2.909755  2.671333  4.317010
H    -2.833792  3.402284  5.926936
Ca    2.178014  -0.354644  4.333865
