37
Energy: -41907.0210122 eV PBE+vdW (tier 2 basis)
C    -2.299631  -0.961513  -0.094613
C    -2.790163  -1.109963  1.302791
O    -2.681706  -2.199447  1.935813
H    -2.263911  0.078569  -0.434421
H    -1.328884  -1.450893  -0.226480
H    -3.017700  -1.492210  -0.741874
N    -3.423697  -0.069531  1.923460
C    -2.861405  1.268489  2.092268
C    -1.319664  1.168353  2.139447
O    -0.761251  0.114049  2.560714
H    -3.909607  -0.379146  2.770514
H    -3.156620  1.939600  1.272876
C    -3.431277  1.876433  3.445008
C    -3.629970  0.838503  4.510301
C    -4.828403  0.199241  4.783315
C    -2.622100  0.106175  5.240082
N    -4.614684  -0.902496  5.578120
C    -3.275266  -1.021235  5.844602
C    -1.238936  0.289307  5.474509
C    -2.556713  -2.037811  6.495551
C    -0.527911  -0.702581  6.151926
C    -1.174136  -1.876036  6.619364
H    -4.393315  2.349068  3.210770
H    -2.758011  2.680978  3.769075
H    -5.832022  0.452329  4.452976
H    -5.344198  -1.517397  5.925951
H    -0.729408  1.187333  5.128781
H    -3.057195  -2.910208  6.915517
H    0.535450  -0.567696  6.348366
H    -0.592506  -2.637124  7.138151
N    -0.636542  2.230844  1.738132
C    0.821125  2.361071  1.747804
H    -1.168195  3.021212  1.379190
H    1.177501  2.568876  0.732039
H    1.260937  1.427567  2.105246
H    1.117418  3.187422  2.405168
Ca    -1.327402  -1.753132  3.680565
