37
Energy: -41906.3872059 eV PBE+vdW (tier 2 basis)
C    -1.710230  1.064915  -0.044136
C    -1.536052  1.035041  1.434658
O    -0.542204  1.627334  1.986613
H    -2.648490  0.602414  -0.366069
H    -1.689645  2.110748  -0.379905
H    -0.863662  0.557035  -0.526844
N    -2.434728  0.392837  2.175604
C    -2.523641  0.462311  3.634094
C    -1.375383  -0.336487  4.279103
O    -0.340403  0.326461  4.652801
H    -3.282365  0.017889  1.722194
H    -2.290902  1.497946  3.923021
C    -3.997785  0.165017  4.121604
C    -4.935804  -0.360870  3.082433
C    -5.566063  -1.596705  3.070114
C    -5.456569  0.371580  1.946463
N    -6.413817  -1.671512  2.000151
C    -6.373544  -0.492228  1.283288
C    -5.273148  1.677565  1.446712
C    -7.073065  -0.107871  0.136259
C    -5.971605  2.063687  0.310328
C    -6.854181  1.177860  -0.341944
H    -4.378244  1.122756  4.503302
H    -3.963749  -0.504612  4.989365
H    -5.507804  -2.414233  3.781474
H    -7.014370  -2.460805  1.790970
H    -4.624279  2.391906  1.957466
H    -7.773894  -0.781080  -0.355978
H    -5.855996  3.075272  -0.076457
H    -7.389080  1.515759  -1.227982
N    -1.386175  -1.645620  4.448312
C    -2.386613  -2.636352  4.054455
H    -0.555146  -2.007595  4.918713
H    -3.003748  -2.920071  4.916695
H    -3.026697  -2.249708  3.256876
H    -1.861703  -3.526626  3.691300
Ca    0.753784  1.839040  3.630948
