37
Energy: -41905.8839145 eV PBE+vdW (tier 2 basis)
C    -0.144143  0.052509  0.934268
C    -1.000024  0.560688  2.045068
O    -0.567245  1.488081  2.810440
H    -0.725812  -0.166840  0.033631
H    0.368366  -0.874271  1.239091
H    0.624228  0.800110  0.712520
N    -2.235061  0.062470  2.283430
C    -2.561835  -1.369607  2.374028
C    -1.720802  -1.973561  3.523626
O    -0.969329  -1.224605  4.255705
H    -2.765652  0.639762  2.936759
H    -3.611052  -1.399688  2.707213
C    -2.520001  -2.180356  1.041119
C    -3.264603  -3.473370  1.147723
C    -2.748165  -4.746482  0.931851
C    -4.667957  -3.638076  1.436846
N    -3.744440  -5.672045  1.085593
C    -4.933452  -5.035031  1.396047
C    -5.731076  -2.750590  1.692387
C    -6.205151  -5.564761  1.625965
C    -6.996491  -3.274016  1.923762
C    -7.228294  -4.663974  1.896072
H    -1.485217  -2.368415  0.728901
H    -2.981074  -1.530872  0.280587
H    -1.747796  -5.048747  0.636837
H    -3.639174  -6.668298  0.932525
H    -5.591935  -1.668203  1.662537
H    -6.393822  -6.636752  1.582596
H    -7.832695  -2.601729  2.109440
H    -8.235191  -5.038605  2.072828
N    -1.829257  -3.263469  3.736576
C    -1.143531  -4.003965  4.795332
H    -2.392716  -3.779828  3.035477
H    -1.470804  -5.045642  4.749373
H    -1.403932  -3.591236  5.776889
H    -0.055426  -3.962356  4.661539
Ca    -0.133937  0.664854  4.753452
