37
Energy: -41906.4319131 eV PBE+vdW (tier 2 basis)
C    -0.460982  0.436445  -0.050717
C    -0.239812  0.286946  1.418215
O    0.924480  0.010162  1.856110
H    -0.213711  -0.518064  -0.537698
H    -1.486626  0.714376  -0.313562
H    0.233001  1.186557  -0.452168
N    -1.281828  0.451907  2.240665
C    -1.408558  0.166318  3.687881
C    -0.623227  1.138307  4.573642
O    0.656387  1.162976  4.534990
H    -2.159409  0.671467  1.776420
H    -2.473118  0.318694  3.894380
C    -1.094923  -1.304463  4.088579
C    -1.494106  -1.548739  5.505354
C    -0.663325  -1.787696  6.585034
C    -2.842708  -1.537243  6.013556
N    -1.416267  -1.912096  7.724040
C    -2.755369  -1.762978  7.415411
C    -4.113872  -1.378308  5.427282
C    -3.883936  -1.813386  8.238320
C    -5.237198  -1.425286  6.243030
C    -5.121779  -1.635204  7.632711
H    -0.030408  -1.538853  3.935182
H    -1.653936  -1.948807  3.391949
H    0.413838  -1.917389  6.622887
H    -1.053353  -2.154810  8.638092
H    -4.232421  -1.258002  4.348379
H    -3.801622  -1.995320  9.309274
H    -6.227969  -1.317607  5.804124
H    -6.023725  -1.673730  8.241289
N    -1.259868  1.926214  5.416885
C    -2.704999  2.047914  5.660639
H    -0.647080  2.496465  6.000839
H    -2.845183  2.795782  6.445316
H    -3.125565  1.092806  5.998521
H    -3.225279  2.396610  4.760581
Ca    2.270456  0.389035  3.422570
