37
Energy: -41906.0338582 eV PBE+vdW (tier 2 basis)
C    -0.339070  -0.552108  -0.192218
C    -0.458488  -0.286665  1.269992
O    0.490101  0.291855  1.903297
H    -1.232643  -1.020465  -0.617353
H    0.523826  -1.210807  -0.365200
H    -0.136861  0.388405  -0.721335
N    -1.557154  -0.662751  1.923836
C    -1.685653  -0.538015  3.379457
C    -2.586356  -1.560508  4.115447
O    -2.145930  -1.950553  5.193214
H    -2.288956  -1.126718  1.391887
H    -0.701998  -0.816665  3.774153
C    -2.002598  0.920804  3.849928
C    -0.855990  1.557012  4.582689
C    -0.092332  0.957133  5.573631
C    -0.313650  2.888684  4.391060
N    0.926086  1.822358  5.969553
C    0.783376  3.039307  5.299067
C    -0.602520  3.941938  3.491459
C    1.574888  4.197475  5.346541
C    0.183030  5.084719  3.537036
C    1.251549  5.213559  4.454631
H    -2.881393  0.905066  4.510603
H    -2.282582  1.532242  2.982956
H    -0.215085  -0.017759  6.042158
H    1.472098  1.694878  6.819054
H    -1.438705  3.871268  2.796866
H    2.388171  4.308479  6.063296
H    -0.035494  5.912789  2.864241
H    1.828796  6.137034  4.470604
N    -3.789489  -1.927912  3.618403
C    -4.509875  -1.421030  2.456499
H    -4.270609  -2.606185  4.206339
H    -5.585147  -1.518905  2.638623
H    -4.287053  -1.990309  1.538864
H    -4.315909  -0.352993  2.294443
Ca    1.521496  1.357919  3.413492
