37
Energy: -41906.6633898 eV PBE+vdW (tier 2 basis)
C    0.558820  0.670299  0.661454
C    -0.190402  0.199251  1.867606
O    0.198238  0.569390  3.036897
H    1.592894  0.303030  0.722795
H    0.115950  0.322540  -0.276830
H    0.604611  1.767600  0.653271
N    -1.233941  -0.584236  1.690955
C    -2.031045  -1.351338  2.644702
C    -2.542877  -2.532069  1.745517
O    -2.511068  -2.378420  0.521981
H    -1.487309  -0.921572  0.735025
H    -1.386738  -1.721602  3.454881
C    -3.248576  -0.574593  3.236153
C    -2.947515  0.255194  4.446580
C    -3.073104  -0.153466  5.760414
C    -2.463109  1.605367  4.504570
N    -2.652644  0.837474  6.621556
C    -2.265553  1.933674  5.895818
C    -2.171363  2.589120  3.530143
C    -1.716369  3.161648  6.303555
C    -1.634460  3.814568  3.936092
C    -1.390495  4.091847  5.307866
H    -4.014581  -1.314938  3.503666
H    -3.692737  0.035005  2.437021
H    -3.449260  -1.091812  6.156835
H    -2.716823  0.790931  7.633983
H    -2.359061  2.393639  2.474378
H    -1.569779  3.399689  7.357617
H    -1.418980  4.582984  3.193927
H    -0.985101  5.061520  5.594720
N    -3.010332  -3.616393  2.379903
C    -3.557402  -4.780893  1.681521
H    -2.924249  -3.668772  3.389317
H    -3.624970  -4.542887  0.616879
H    -4.556238  -5.014720  2.067507
H    -2.902442  -5.650237  1.816491
Ca    0.202010  1.934179  4.614234
