37
Energy: -41906.5353211 eV PBE+vdW (tier 2 basis)
C    -1.408187  2.844820  1.294045
C    -1.549196  1.721708  2.265313
O    -1.481979  1.949211  3.525098
H    -1.428653  2.509806  0.252243
H    -0.472519  3.385827  1.485813
H    -2.228893  3.557274  1.461256
N    -1.753654  0.496756  1.795991
C    -2.089936  -0.713816  2.551968
C    -0.839450  -1.287087  3.255332
O    -0.395125  -0.684951  4.292461
H    -1.840299  0.362853  0.776362
H    -2.745947  -0.414897  3.384566
C    -2.892137  -1.687552  1.618756
C    -2.845387  -1.389978  0.151108
C    -3.976978  -1.202398  -0.627537
C    -1.712488  -1.324627  -0.749369
N    -3.617738  -1.036087  -1.933505
C    -2.244651  -1.098128  -2.054149
C    -0.310884  -1.417649  -0.613316
C    -1.440685  -0.978986  -3.189774
C    0.491499  -1.299957  -1.741717
C    -0.066639  -1.085533  -3.016646
H    -3.939253  -1.643569  1.942688
H    -2.587605  -2.724687  1.833389
H    -5.021891  -1.204800  -0.333507
H    -4.266194  -0.907588  -2.701888
H    0.164898  -1.573479  0.355353
H    -1.873782  -0.814362  -4.175780
H    1.573274  -1.379667  -1.643915
H    0.590335  -1.003635  -3.880788
N    -0.269828  -2.381323  2.798248
C    0.907655  -3.042168  3.359606
H    -0.684302  -2.804756  1.969141
H    1.183292  -2.560185  4.299505
H    1.741036  -2.974558  2.648881
H    0.676629  -4.098722  3.537742
Ca    -0.647341  1.180889  5.283025
