37
Energy: -41907.5531976 eV PBE+vdW (tier 2 basis)
C    -0.234994  0.721879  2.377841
C    -1.144722  -0.372356  2.841839
O    -1.545308  -0.398088  4.032132
H    -0.733878  1.687436  2.536879
H    0.060175  0.640028  1.326848
H    0.664447  0.722277  3.008135
N    -1.496686  -1.310046  1.936957
C    -2.383569  -2.489000  2.059036
C    -3.798908  -2.109686  2.544712
O    -4.031811  -1.822489  3.750514
H    -1.111729  -1.171971  1.007215
H    -2.483374  -2.831952  1.020985
C    -1.777774  -3.718193  2.809002
C    -1.659944  -3.698613  4.306825
C    -2.591304  -4.218512  5.191660
C    -0.563452  -3.194881  5.111886
N    -2.185804  -3.978593  6.498657
C    -0.912962  -3.396793  6.480448
C    0.685962  -2.611246  4.810914
C    -0.072664  -3.033186  7.542333
C    1.522762  -2.261057  5.857164
C    1.147880  -2.464694  7.204697
H    -0.786712  -3.895223  2.367554
H    -2.393756  -4.580732  2.516733
H    -3.525135  -4.735803  4.992415
H    -2.582031  -4.452741  7.306603
H    0.997647  -2.462914  3.777551
H    -0.345882  -3.217703  8.580725
H    2.500018  -1.830668  5.643625
H    1.840766  -2.184869  7.996812
N    -4.762171  -2.131136  1.628005
C    -6.168876  -1.819842  1.881457
H    -4.507405  -2.364680  0.672313
H    -6.796850  -2.629528  1.492756
H    -6.440907  -0.882583  1.380198
H    -6.323659  -1.716585  2.957619
Ca    -2.691392  -1.533260  5.480954
