37
Energy: -41906.4223965 eV PBE+vdW (tier 2 basis)
C    -0.174470  -0.402180  -0.120334
C    -0.150616  -0.138929  1.345815
O    0.957836  0.074874  1.953220
H    -1.188875  -0.558607  -0.501999
H    0.443351  -1.281966  -0.346223
H    0.282116  0.450709  -0.641807
N    -1.300552  -0.118936  2.014070
C    -1.428548  0.306874  3.414473
C    -0.739747  -0.692224  4.361925
O    0.409934  -0.366971  4.833730
H    -2.173649  -0.147933  1.463365
H    -0.839430  1.231299  3.522776
C    -2.901430  0.685990  3.755360
C    -3.507480  1.517669  2.672724
C    -3.578964  2.897175  2.608719
C    -4.073857  1.016302  1.444772
N    -4.142642  3.271060  1.416782
C    -4.452356  2.151142  0.671811
C    -4.307351  -0.272230  0.917019
C    -5.029020  2.034719  -0.594952
C    -4.873099  -0.388732  -0.349222
C    -5.223682  0.752414  -1.096736
H    -2.879857  1.225063  4.711839
H    -3.507987  -0.212507  3.919338
H    -3.293104  3.642400  3.344145
H    -4.358760  4.225147  1.152482
H    -4.120681  -1.173990  1.506694
H    -5.323687  2.912795  -1.168661
H    -5.078738  -1.376365  -0.759544
H    -5.675392  0.626862  -2.079284
N    -1.264324  -1.853259  4.714825
C    -2.489283  -2.524421  4.268776
H    -0.701526  -2.365270  5.395969
H    -2.297723  -3.602659  4.264622
H    -2.754759  -2.218829  3.254065
H    -3.320140  -2.319216  4.954901
Ca    2.106491  0.251726  3.706545
