37
Energy: -41906.6263552 eV PBE+vdW (tier 2 basis)
C    -0.385819  2.225995  0.872895
C    -0.903047  1.300759  1.921998
O    -1.314785  1.761475  3.043837
H    -0.089551  1.702247  -0.042376
H    0.467883  2.793833  1.266576
H    -1.171949  2.956034  0.633870
N    -0.932618  -0.001359  1.655127
C    -1.618375  -1.053241  2.427209
C    -0.845649  -1.403261  3.716051
O    -0.924773  -0.620607  4.723957
H    -0.693082  -0.260409  0.686073
H    -2.578518  -0.634408  2.772037
C    -1.931707  -2.248458  1.486322
C    -2.525168  -1.804899  0.188142
C    -3.864801  -1.689919  -0.133080
C    -1.781551  -1.342136  -0.956221
N    -3.987189  -1.171746  -1.396228
C    -2.736662  -0.936870  -1.931224
C    -0.407587  -1.229205  -1.260401
C    -2.362116  -0.413781  -3.171111
C    -0.034479  -0.698923  -2.491993
C    -1.001505  -0.291689  -3.431897
H    -2.604054  -2.931450  2.023060
H    -1.007907  -2.812787  1.266476
H    -4.744320  -1.963913  0.440670
H    -4.864998  -1.039267  -1.884685
H    0.363044  -1.610219  -0.583846
H    -3.104448  -0.118129  -3.911719
H    1.021100  -0.625606  -2.749861
H    -0.676144  0.107734  -4.390981
N    -0.145874  -2.518103  3.767265
C    0.614512  -3.004710  4.918945
H    -0.144828  -3.099325  2.931183
H    0.390239  -4.066218  5.070424
H    0.331793  -2.437805  5.808356
H    1.689808  -2.889937  4.731891
Ca    -1.418873  1.411305  5.101259
