37
Energy: -41906.3864953 eV PBE+vdW (tier 2 basis)
C    0.528807  -0.273064  0.318880
C    0.311001  -0.149209  1.789488
O    1.319604  -0.140275  2.586451
H    1.037554  -1.226572  0.117701
H    -0.404146  -0.239636  -0.251982
H    1.198784  0.525740  -0.025864
N    -0.918942  -0.051866  2.254838
C    -1.362837  -0.111540  3.641818
C    -2.832215  -0.636847  3.494104
O    -3.365931  -0.514797  2.388924
H    -1.751504  -0.129495  1.634268
H    -0.729913  -0.819367  4.196138
C    -1.392644  1.265455  4.361050
C    -0.076212  1.919799  4.675516
C    0.620955  1.821514  5.868728
C    0.646237  2.880478  3.859151
N    1.763804  2.627736  5.826447
C    1.765043  3.341109  4.619671
C    0.456936  3.381885  2.552188
C    2.696358  4.263118  4.117679
C    1.369685  4.301939  2.058835
C    2.473171  4.735656  2.828665
H    -1.941873  1.133694  5.302528
H    -1.997764  1.952301  3.752437
H    0.373352  1.276205  6.775207
H    2.262440  2.927365  6.662032
H    -0.396493  3.066260  1.953377
H    3.533001  4.621749  4.716859
H    1.231536  4.713703  1.060079
H    3.158004  5.470818  2.408058
N    -3.451236  -1.164580  4.563524
C    -2.940609  -1.403785  5.906737
H    -4.417026  -1.430553  4.377590
H    -3.402116  -2.313973  6.304385
H    -3.175760  -0.574792  6.590360
H    -1.857255  -1.569261  5.893006
Ca    2.400014  0.895342  4.026148
