37
Energy: -41906.7713975 eV PBE+vdW (tier 2 basis)
C    -2.103889  -0.568573  -0.468897
C    -2.829631  -0.849290  0.797432
O    -2.951759  -2.013089  1.264299
H    -2.773222  -0.874472  -1.290931
H    -1.882588  0.493981  -0.614231
H    -1.197474  -1.177661  -0.547305
N    -3.442559  0.176073  1.483158
C    -2.772406  1.378365  1.987686
C    -1.264405  1.102734  2.126176
O    -0.879139  -0.043145  2.498090
H    -4.129425  -0.198051  2.137762
H    -2.954778  2.249288  1.341846
C    -3.375022  1.678309  3.410062
C    -3.307664  0.515390  4.365495
C    -4.263527  -0.483828  4.494421
C    -2.238282  0.177042  5.287963
N    -3.813567  -1.461188  5.374661
C    -2.594076  -1.050034  5.923580
C    -1.021160  0.796925  5.643919
C    -1.781853  -1.674827  6.881621
C    -0.221930  0.188507  6.598130
C    -0.594178  -1.031795  7.206483
H    -4.420768  1.979845  3.256530
H    -2.859871  2.552839  3.827264
H    -5.258424  -0.561449  4.062732
H    -4.426022  -2.151859  5.803137
H    -0.724303  1.744375  5.195783
H    -2.081598  -2.598918  7.374994
H    0.710336  0.663005  6.900737
H    0.057161  -1.469417  7.961643
N    -0.430581  2.104313  1.889232
C    1.023834  2.046286  2.045008
H    -0.827879  2.976576  1.546801
H    1.507426  2.127254  1.063756
H    1.295291  1.095224  2.508537
H    1.357623  2.878281  2.675651
Ca    -2.049691  -1.756015  3.335775
