37
Energy: -41906.7763701 eV PBE+vdW (tier 2 basis)
C    -0.017164  2.703284  2.077089
C    -0.160168  1.441060  2.864446
O    0.887009  0.889009  3.369869
H    0.626862  2.509899  1.207809
H    -0.977217  3.094393  1.726648
H    0.482964  3.466661  2.687446
N    -1.361108  0.918133  3.008812
C    -1.755035  -0.358540  3.591092
C    -3.050923  -0.709985  2.785450
O    -3.623457  0.211150  2.198519
H    -2.179863  1.311064  2.499386
H    -0.959281  -1.098415  3.422092
C    -2.107063  -0.250778  5.104820
C    -1.008108  0.304071  5.951837
C    -0.972249  1.555772  6.529997
C    0.246662  -0.313355  6.272066
N    0.238659  1.766055  7.155983
C    1.019157  0.648960  7.021151
C    0.818605  -1.579746  6.007392
C    2.332500  0.383817  7.443776
C    2.123381  -1.849287  6.440334
C    2.878304  -0.871579  7.139621
H    -2.395102  -1.252807  5.455668
H    -3.002277  0.377942  5.204753
H    -1.736636  2.326837  6.545481
H    0.467745  2.583337  7.713454
H    0.248020  -2.350371  5.488650
H    2.905848  1.114871  8.014933
H    2.559521  -2.832493  6.264447
H    3.883979  -1.113894  7.481576
N    -3.468273  -1.983425  2.830904
C    -4.693305  -2.449734  2.179131
H    -2.898843  -2.671066  3.312167
H    -5.363510  -2.905788  2.917194
H    -4.454108  -3.185077  1.401698
H    -5.187772  -1.588699  1.722142
Ca    2.370246  0.139724  4.624169
