37
Energy: -41906.0162248 eV PBE+vdW (tier 2 basis)
C    -1.131622  0.653298  -0.604180
C    -0.658664  0.370945  0.781632
O    0.158119  1.164679  1.360581
H    -0.267960  1.000632  -1.187089
H    -1.575360  -0.218126  -1.094075
H    -1.861731  1.477027  -0.606573
N    -1.089190  -0.721438  1.448176
C    -2.504711  -1.084211  1.501529
C    -3.213451  -0.049990  2.415068
O    -2.587017  1.000870  2.822180
H    -0.565006  -0.922062  2.302359
H    -2.933316  -0.968016  0.494722
C    -2.691277  -2.566508  1.933525
C    -4.097731  -3.055873  1.801610
C    -4.882934  -3.602997  2.809939
C    -4.875302  -3.125915  0.587467
N    -6.088922  -3.985143  2.290404
C    -6.126177  -3.708188  0.934717
C    -4.635440  -2.784744  -0.757267
C    -7.137314  -3.931060  -0.002663
C    -5.638882  -3.003460  -1.692288
C    -6.876246  -3.564466  -1.317478
H    -2.332807  -2.697301  2.966133
H    -2.017141  -3.148201  1.284939
H    -4.645857  -3.776686  3.855090
H    -6.823054  -4.451022  2.811150
H    -3.666304  -2.402890  -1.084540
H    -8.086679  -4.385269  0.278519
H    -5.464674  -2.758805  -2.738979
H    -7.637282  -3.730046  -2.078257
N    -4.463079  -0.291441  2.731504
C    -5.318703  0.552784  3.562302
H    -4.811542  -1.223920  2.438432
H    -6.353130  0.435521  3.225004
H    -5.020705  1.600007  3.463387
H    -5.250832  0.252370  4.616216
Ca    -0.840761  2.204216  2.958852
