37
Energy: -41906.5868042 eV PBE+vdW (tier 2 basis)
C    0.524633  -1.299959  5.220501
C    0.077317  -0.742587  3.910355
O    0.866002  -0.755012  2.907148
H    1.470430  -0.831277  5.521045
H    -0.213225  -1.177382  6.019884
H    0.729840  -2.372401  5.086968
N    -1.158596  -0.247085  3.809065
C    -1.887485  0.143596  2.582666
C    -1.443626  1.547140  2.116218
O    -0.239934  1.682865  1.686327
H    -1.724108  -0.268543  4.655988
H    -1.557877  -0.533209  1.778046
C    -3.394592  -0.101723  2.843956
C    -4.316001  0.328579  1.747705
C    -4.521477  -0.279022  0.522226
C    -5.152353  1.500296  1.774051
N    -5.414686  0.460756  -0.210010
C    -5.820310  1.560855  0.517827
C    -5.407612  2.505574  2.731818
C    -6.709080  2.588243  0.192975
C    -6.283831  3.535056  2.403308
C    -6.922683  3.575975  1.148093
H    -3.680378  0.409205  3.778642
H    -3.495935  -1.178906  3.047100
H    -4.118358  -1.205347  0.125205
H    -5.773289  0.199992  -1.120974
H    -4.982588  2.458868  3.738078
H    -7.223702  2.614041  -0.766928
H    -6.506600  4.307288  3.138159
H    -7.613599  4.388444  0.929420
N    -2.263133  2.567425  2.144545
C    -1.921757  3.916022  1.690304
H    -3.258918  2.404166  2.355522
H    -1.101039  4.325862  2.290120
H    -2.810686  4.541021  1.809720
H    -1.625377  3.902881  0.634162
Ca    1.537614  0.586303  1.422762
