25
Energy: -603670.206614 eV PBE+vdW (tier 2 basis)
N    -0.397064  -1.840542  2.596230
C    -0.233622  -0.606556  1.812760
C    1.037853  0.171781  2.123772
O    1.704182  -0.046323  3.200094
H    -3.404482  -3.320377  1.903763
H    0.447285  -2.416426  2.547923
H    -0.152789  -0.880122  0.749710
C    -1.433714  0.369267  1.995108
C    -2.840470  -0.250285  2.027752
C    -3.422435  -0.881746  0.750828
C    -2.799371  -2.176094  0.226549
N    -2.558405  -3.173454  1.338915
H    -1.369000  1.127690  1.203028
H    -1.298085  0.903701  2.948665
H    -3.517651  0.572476  2.298001
H    -2.922493  -0.947418  2.876935
H    -3.392289  -0.159568  -0.078461
H    -4.491907  -1.065286  0.935607
H    -1.823481  -2.021672  -0.248898
H    -3.455549  -2.648210  -0.513711
H    -2.277219  -4.088689  0.967290
H    -1.764132  -2.785569  1.959567
O    1.437700  1.080809  1.304567
H    -0.526788  -1.623426  3.588768
Pb    3.213927  1.623043  2.646240
