25
Energy: -603668.537954 eV PBE+vdW (tier 2 basis)
N    -0.498086  1.665887  0.437856
C    -0.274901  0.689472  1.548802
C    1.153611  0.852749  2.077860
O    1.882760  1.815822  1.754164
H    -1.457942  2.021239  0.482028
H    -0.432899  1.171824  -0.460852
H    -0.922382  1.001562  2.387859
C    -0.622758  -0.763456  1.148972
C    -2.094588  -1.005119  0.772569
C    -3.096731  -0.787371  1.911616
C    -4.521860  -1.228375  1.523704
N    -5.461358  -0.993097  2.588624
H    -0.379503  -1.432996  1.991395
H    0.038126  -1.069550  0.321673
H    -2.155129  -2.046278  0.422688
H    -2.374585  -0.397397  -0.104312
H    -3.148170  0.271106  2.217682
H    -2.776520  -1.354915  2.801054
H    -4.490874  -2.298780  1.231023
H    -4.863558  -0.675604  0.637329
H    -6.435874  -0.878670  2.324651
H    -5.351279  -1.542297  3.437792
O    1.649765  0.005267  2.934448
H    1.055941  -0.747701  3.131699
Pb    1.222250  3.522071  0.395161
