25
Energy: -603670.078593 eV PBE+vdW (tier 2 basis)
N    -0.340197  0.696016  0.091540
C    0.058118  0.020717  1.331161
C    1.537003  0.284043  1.580012
O    2.450122  -0.340123  0.911433
H    -4.454845  -2.517848  -1.702045
H    0.219620  0.399103  -0.709042
H    -0.481099  0.501480  2.159648
C    -0.260135  -1.482324  1.308367
C    -1.756116  -1.830707  1.409789
C    -2.576521  -1.645285  0.119226
C    -4.012500  -2.104708  0.337203
N    -4.844815  -1.956196  -0.931998
H    0.245438  -1.948789  2.166722
H    0.188209  -1.939852  0.412660
H    -2.212294  -1.243934  2.223102
H    -1.826375  -2.883554  1.722244
H    -2.117166  -2.235338  -0.691378
H    -2.549557  -0.590036  -0.191582
H    -4.527574  -1.514029  1.105241
H    -4.076169  -3.164373  0.615707
H    -5.817507  -2.262165  -0.786673
H    -4.870585  -0.976943  -1.249313
O    1.899776  1.194842  2.418861
H    -0.297451  1.712436  0.165910
Pb    4.109623  0.783567  2.017202
