25
Energy: -603669.020259 eV PBE+vdW (tier 2 basis)
N    0.642887  -0.485679  0.040429
C    0.058276  -0.188537  1.415928
C    1.234472  0.060712  2.365301
O    1.007037  0.179361  3.607910
H    0.031858  -0.154404  -0.717706
H    0.775494  -1.501747  -0.078381
H    -0.463246  0.777481  1.324606
C    -0.929922  -1.271431  1.863718
C    -0.345285  -2.690586  1.939653
C    -1.270918  -3.704881  2.632849
C    -2.571923  -4.018743  1.874655
N    -3.331655  -5.030793  2.559390
H    -1.803983  -1.230745  1.197032
H    -1.292280  -0.958915  2.853699
H    0.605736  -2.669141  2.496495
H    -0.107345  -3.076889  0.930182
H    -1.523184  -3.349002  3.642729
H    -0.706818  -4.639820  2.766601
H    -2.317987  -4.321566  0.834593
H    -3.210627  -3.127369  1.791935
H    -4.323422  -5.090422  2.349486
H    -2.897575  -5.942910  2.676006
O    2.407347  0.205127  1.876314
H    1.572978  -0.037371  -0.040112
Pb    3.245427  0.740334  4.071045
