25
Energy: -603669.070653 eV PBE+vdW (tier 2 basis)
N    1.008831  -0.993279  0.335299
C    0.433551  -0.717454  1.717237
C    1.536101  -0.954347  2.744974
O    1.346077  -0.568689  3.941962
H    0.234093  -1.082493  -0.347206
H    1.639346  -0.245663  0.013900
H    0.152800  0.345632  1.742440
C    -0.800472  -1.601032  1.985600
C    -2.084513  -1.200747  1.238207
C    -2.072743  -1.340743  -0.290714
C    -3.482049  -1.178904  -0.905777
N    -3.447047  -1.270904  -2.345843
H    -0.991003  -1.533174  3.065733
H    -0.537813  -2.653935  1.785907
H    -2.361813  -0.172718  1.518729
H    -2.881693  -1.842850  1.641592
H    -1.675739  -2.328020  -0.587460
H    -1.454636  -0.560462  -0.777893
H    -3.888077  -0.197385  -0.627531
H    -4.145456  -1.939952  -0.451377
H    -3.404986  -2.209280  -2.735994
H    -4.120270  -0.694645  -2.842729
O    2.608709  -1.554425  2.393852
H    1.557978  -1.866807  0.348336
Pb    3.423080  -1.384211  4.647139
