25
Energy: -603670.434641 eV PBE+vdW (tier 2 basis)
N    0.518074  -0.842690  0.323311
C    0.250462  -0.150287  1.655435
C    1.304001  -0.638951  2.647964
O    1.365378  -0.064121  3.776252
H    -0.352538  -1.036309  -0.190551
H    1.124330  -0.278644  -0.288463
H    0.388503  0.927101  1.496110
C    -1.185311  -0.395432  2.167008
C    -1.664802  -1.845777  2.384151
C    -0.867389  -2.757321  3.337860
C    -0.713686  -2.244091  4.775558
N    0.554002  -2.763122  5.399278
H    -1.872859  0.100326  1.464712
H    -1.262348  0.191328  3.093072
H    -1.746442  -2.370751  1.418619
H    -2.704151  -1.768158  2.735241
H    0.127541  -2.960591  2.916233
H    -1.371589  -3.733878  3.357682
H    -1.566617  -2.557758  5.393351
H    -0.663820  -1.150464  4.825980
H    0.506842  -2.614851  6.415243
H    0.592809  -3.784133  5.288645
O    2.021441  -1.650371  2.351481
H    1.016368  -1.732326  0.511055
Pb    2.734802  -1.748728  4.683774
