25
Energy: -603667.620783 eV PBE+vdW (tier 2 basis)
N    1.110571  -0.734968  0.100026
C    1.014641  -0.557862  1.539548
C    2.059391  -1.583458  1.988028
O    3.270748  -1.261280  2.144422
H    0.296929  -1.142254  -0.350219
H    1.493836  0.045856  -0.421876
H    1.399872  0.426482  1.839867
C    -0.367984  -0.791872  2.165965
C    -1.352466  0.387724  2.056514
C    -1.889286  0.710048  0.654798
C    -2.992283  1.788356  0.682980
N    -4.194883  1.348620  1.330474
H    -0.229140  -1.006134  3.237917
H    -0.830714  -1.694612  1.721042
H    -0.881208  1.284443  2.489732
H    -2.205749  0.154204  2.710040
H    -2.292281  -0.199818  0.178958
H    -1.093394  1.082954  -0.005176
H    -3.201172  2.081759  -0.368127
H    -2.637112  2.695176  1.191200
H    -4.779737  2.037672  1.794068
H    -4.712591  0.574525  0.921708
O    1.769429  -2.861632  2.135961
H    0.809869  -3.037491  2.039341
Pb    5.120572  -2.498572  2.530524
