25
Energy: -603668.615204 eV PBE+vdW (tier 2 basis)
N    0.431364  0.323257  0.122970
C    0.177334  -0.123114  1.528381
C    1.526228  -0.319087  2.232086
O    2.594660  0.131665  1.763960
H    0.372021  -0.489159  -0.503608
H    -0.321543  0.950843  -0.175846
H    -0.288168  0.730555  2.053955
C    -0.766714  -1.341610  1.624549
C    -2.172105  -1.096369  1.054958
C    -3.100434  -2.298774  1.284131
C    -4.527915  -2.073563  0.759679
N    -5.221341  -1.028150  1.477610
H    -0.884027  -1.611667  2.688651
H    -0.290187  -2.211078  1.141317
H    -2.118449  -0.894744  -0.028053
H    -2.614739  -0.201735  1.522001
H    -3.145481  -2.534680  2.359943
H    -2.693833  -3.193504  0.789736
H    -5.067821  -3.039450  0.827134
H    -4.510111  -1.806671  -0.306480
H    -6.002120  -0.593581  0.992124
H    -5.451280  -1.228440  2.449280
O    1.598704  -0.926594  3.381942
H    0.741199  -1.288469  3.686671
Pb    2.730824  1.330673  -0.172963
