25
Energy: -603668.599531 eV PBE+vdW (tier 2 basis)
N    0.575048  0.085888  0.244878
C    0.016374  0.107978  1.637492
C    1.053131  0.719341  2.578065
O    2.105064  1.267466  2.162811
H    0.857952  -0.876457  0.020008
H    -0.169596  0.307706  -0.424197
H    -0.825980  0.822559  1.639079
C    -0.515662  -1.285262  2.058432
C    -1.348364  -1.333526  3.354351
C    -2.155182  -2.639829  3.519418
C    -3.377036  -2.775714  2.601763
N    -3.024080  -2.995284  1.201471
H    0.326463  -1.993633  2.123237
H    -1.173743  -1.632713  1.242860
H    -2.046641  -0.479677  3.393406
H    -0.699357  -1.281172  4.250832
H    -2.512413  -2.683922  4.557108
H    -1.489260  -3.508573  3.395462
H    -4.000025  -1.871475  2.660708
H    -3.998863  -3.602404  2.995439
H    -2.628195  -3.920516  1.030349
H    -3.808061  -2.852556  0.565531
O    0.853621  0.727898  3.860768
H    0.047266  0.221678  4.121891
Pb    2.599693  1.550373  -0.023124
