25
Energy: -603670.215394 eV PBE+vdW (tier 2 basis)
N    -1.453763  1.146784  0.683454
C    -0.881616  0.077850  1.567468
C    0.559334  0.446437  1.988731
O    1.263794  1.188186  1.143564
H    -2.166759  0.748582  0.062883
H    -1.944377  1.846553  1.252160
H    -1.486522  0.018720  2.482785
C    -0.909332  -1.284264  0.826584
C    -0.924062  -2.575466  1.669995
C    0.363596  -2.954964  2.439803
C    0.268032  -2.696697  3.950156
N    1.603324  -2.259500  4.516861
H    -0.081554  -1.324505  0.098918
H    -1.838330  -1.304008  0.234030
H    -1.150848  -3.383532  0.962852
H    -1.784335  -2.550954  2.356594
H    1.221594  -2.410503  2.019218
H    0.578517  -4.018670  2.277395
H    -0.047090  -3.588351  4.503812
H    -0.420052  -1.879070  4.187862
H    1.830837  -1.335856  4.097744
H    1.569295  -2.153139  5.539466
O    1.032080  0.014372  3.026537
H    2.354970  -2.926800  4.299174
Pb    0.411266  2.283797  -0.499046
