25
Energy: -603667.557866 eV PBE+vdW (tier 2 basis)
N    0.485693  0.472035  1.130851
C    -0.289640  0.231612  2.336633
C    0.755245  -0.513018  3.170621
O    1.502736  0.112208  3.979508
H    0.240171  -0.094019  0.324061
H    0.609347  1.448801  0.884469
H    -0.451304  1.182265  2.860355
C    -1.657450  -0.459688  2.175587
C    -1.715196  -1.797819  1.422688
C    -3.147321  -2.281175  1.103938
C    -3.874446  -1.503768  -0.004374
N    -4.310787  -0.186099  0.395344
H    -2.289526  0.267967  1.639699
H    -2.112186  -0.574854  3.172071
H    -1.275275  -2.618807  2.026817
H    -1.147283  -1.757307  0.477887
H    -3.755605  -2.279137  2.022211
H    -3.093123  -3.329445  0.781338
H    -4.741780  -2.122482  -0.319150
H    -3.239588  -1.403579  -0.896727
H    -4.546681  0.457399  -0.357278
H    -4.992895  -0.149520  1.151438
O    0.996073  -1.798189  3.026495
H    0.335583  -2.224776  2.431536
Pb    3.345721  -0.449382  5.124601
