25
Energy: -603669.879809 eV PBE+vdW (tier 2 basis)
N    0.276706  1.709604  1.350025
C    1.283278  0.685465  1.641059
C    1.448233  -0.175201  0.400243
O    2.315544  0.176076  -0.493384
H    -2.264421  0.183968  6.310655
H    0.636622  2.466896  0.771174
H    2.243043  1.205357  1.759285
C    1.003837  -0.080133  2.950402
C    -0.453329  -0.471790  3.234469
C    -0.570939  -1.185698  4.591238
C    -1.987387  -1.506646  5.050620
N    -2.736200  -0.255958  5.507651
H    1.351197  0.576664  3.761593
H    1.646935  -0.973105  2.984395
H    -0.846639  -1.128121  2.443221
H    -1.060355  0.450078  3.219519
H    -0.051001  -0.612203  5.377769
H    -0.042886  -2.149976  4.547207
H    -1.992334  -2.182869  5.913489
H    -2.599628  -1.951516  4.256011
H    -3.699283  -0.476813  5.797525
H    -2.789278  0.447744  4.758474
O    0.705265  -1.205332  0.162093
H    -0.576548  1.342944  0.930231
Pb    1.820568  -1.588437  -1.821965
