25
Energy: -603669.967351 eV PBE+vdW (tier 2 basis)
N    -0.620955  -3.162383  1.688369
C    -0.503668  -2.056475  0.755421
C    0.852326  -2.021360  0.100416
O    1.553609  -3.100494  0.012351
H    -0.093147  -3.981348  1.388308
H    -1.594232  -3.443396  1.801451
H    -1.147854  -2.182905  -0.149732
C    -0.953803  -0.718352  1.388127
C    -0.229111  -0.356715  2.691340
C    -0.971490  0.747562  3.463929
C    -0.287821  1.065552  4.787178
N    -1.065385  2.118798  5.570849
H    -2.030563  -0.829369  1.588284
H    -0.860468  0.083940  0.643736
H    0.799450  -0.027396  2.473690
H    -0.154883  -1.261379  3.312723
H    -2.005073  0.414906  3.656614
H    -1.037686  1.660137  2.848670
H    0.721362  1.474141  4.652489
H    -0.223894  0.188347  5.443079
H    -0.608921  2.341905  6.466776
H    -1.150151  2.996255  5.038165
O    1.297009  -0.947917  -0.463740
H    -2.020828  1.796680  5.781798
Pb    3.093178  -2.075733  -1.323292
