25
Energy: -603669.059702 eV PBE+vdW (tier 2 basis)
N    0.499647  -0.206250  0.334639
C    -0.018036  0.275679  1.684114
C    1.110671  1.067348  2.349380
O    0.969110  1.448576  3.551352
H    0.902877  -1.151388  0.424590
H    -0.246726  -0.245987  -0.371943
H    -0.806789  1.012252  1.462916
C    -0.611662  -0.869637  2.512883
C    0.341064  -2.026933  2.841389
C    -0.345403  -3.078404  3.725697
C    0.558567  -4.279472  4.046675
N    -0.109249  -5.219387  4.907605
H    -1.505613  -1.241917  1.988794
H    -0.981843  -0.410542  3.440642
H    1.239851  -1.644916  3.353655
H    0.695735  -2.529374  1.920758
H    -1.260305  -3.435739  3.226405
H    -0.665039  -2.616247  4.671155
H    1.472925  -3.943586  4.557063
H    0.887223  -4.751083  3.095108
H    -0.947702  -5.670532  4.550911
H    0.474594  -5.847302  5.451731
O    2.139501  1.382110  1.657566
H    1.252871  0.427196  0.011810
Pb    2.961252  2.700404  3.499421
