25
Energy: -603668.531371 eV PBE+vdW (tier 2 basis)
N    -0.520940  0.651725  0.581267
C    -0.334487  0.435249  2.048089
C    1.125767  0.688316  2.400553
O    2.040716  0.556115  1.555657
H    -1.321744  0.091947  0.264946
H    -0.774290  1.628952  0.392433
H    -0.968224  1.140036  2.610932
C    -0.690969  -1.023866  2.450664
C    -2.178003  -1.290324  2.727740
C    -3.152471  -1.120185  1.556648
C    -4.578985  -1.605513  1.913666
N    -5.170955  -0.828370  2.978743
H    -0.121925  -1.288010  3.354276
H    -0.304333  -1.692743  1.659291
H    -2.514758  -0.667769  3.571297
H    -2.235621  -2.328835  3.088644
H    -2.818940  -1.702746  0.680190
H    -3.232333  -0.061683  1.248568
H    -4.531440  -2.655953  2.229361
H    -5.192663  -1.573738  0.995261
H    -5.627756  0.038811  2.707203
H    -5.723963  -1.343324  3.657932
O    1.484505  0.986394  3.618190
H    0.738880  1.102216  4.241819
Pb    1.620894  0.144891  -0.647084
