25
Energy: -603670.346816 eV PBE+vdW (tier 2 basis)
N    -0.694875  0.610839  -0.070318
C    -0.678958  -0.043658  1.278516
C    0.446162  0.587666  2.141951
O    0.659009  1.883219  1.976597
H    -0.022709  0.146259  -0.693400
H    -1.609965  0.486365  -0.514993
H    -1.623851  0.252194  1.764972
C    -0.585956  -1.576900  1.242319
C    -1.201486  -2.232467  2.502791
C    -0.550664  -3.568104  2.928174
C    0.376771  -3.482508  4.135171
N    1.619497  -2.648284  3.874474
H    0.470430  -1.859287  1.116590
H    -1.110460  -1.954398  0.353094
H    -2.269403  -2.399574  2.313305
H    -1.164855  -1.531062  3.350087
H    -0.034751  -4.047050  2.080881
H    -1.334303  -4.280452  3.220687
H    0.724101  -4.475727  4.443493
H    -0.125382  -3.015199  4.991756
H    2.222713  -3.095382  3.172715
H    1.380245  -1.682935  3.529405
O    1.079061  -0.070012  2.954388
H    2.179380  -2.545621  4.731000
Pb    -0.021754  2.993080  0.261347
