25
Energy: -603669.160119 eV PBE+vdW (tier 2 basis)
N    0.294125  -1.043605  0.504534
C    0.328338  -0.201633  1.724719
C    1.766515  0.192877  2.057630
O    2.736668  -0.515617  1.701506
H    -0.621506  -1.720134  0.530930
H    0.210208  -0.453359  -0.331315
H    -0.259377  0.716238  1.566695
C    -0.275848  -0.960295  2.944686
C    0.216824  -2.406543  3.189349
C    -0.781439  -3.543537  2.925624
C    -1.075687  -3.911505  1.473394
N    -1.714888  -2.819957  0.698398
H    -1.365276  -0.952603  2.813378
H    -0.088878  -0.352407  3.840286
H    0.569155  -2.485246  4.226521
H    1.162805  -2.629490  2.619898
H    -1.724337  -3.306970  3.446695
H    -0.404834  -4.451832  3.416481
H    -1.679033  -4.830934  1.445208
H    -0.127925  -4.178582  0.957351
H    -2.029230  -3.171605  -0.210964
H    -2.566413  -2.503392  1.171321
O    2.035023  1.238670  2.786488
H    1.255243  1.787321  3.009550
Pb    2.283424  -2.362598  0.435002
