25
Energy: -603669.938509 eV PBE+vdW (tier 2 basis)
N    -1.025245  1.370636  3.431476
C    -0.766974  0.161881  2.651527
C    0.724853  0.334771  2.391214
O    1.156157  1.107177  1.449874
H    -4.490587  -3.005324  -1.717319
H    -1.589192  1.211519  4.261255
H    -0.863941  -0.707231  3.316712
C    -1.651706  -0.015298  1.408964
C    -1.495181  -1.358726  0.681002
C    -2.561001  -1.535907  -0.416476
C    -2.458599  -2.896488  -1.094160
N    -3.553975  -3.076095  -2.140552
H    -1.471416  0.818816  0.712902
H    -2.688548  0.088751  1.764332
H    -1.583782  -2.182506  1.407249
H    -0.491516  -1.439547  0.233826
H    -2.456634  -0.735242  -1.166784
H    -3.560715  -1.424538  0.034989
H    -2.581950  -3.724872  -0.385291
H    -1.508403  -3.032069  -1.625506
H    -3.495463  -2.355276  -2.874037
H    -3.492121  -3.994689  -2.602639
O    1.581598  -0.192371  3.200925
H    -1.400384  2.139372  2.880568
Pb    3.250724  1.099257  2.375948
