25
Energy: -603668.615674 eV PBE+vdW (tier 2 basis)
N    0.589010  -0.054876  0.166318
C    0.326073  0.048903  1.633397
C    1.634035  0.413216  2.329178
O    2.743275  0.093649  1.851301
H    -0.099091  -0.687743  -0.256056
H    0.444008  0.855169  -0.286486
H    -0.416928  0.840929  1.820217
C    -0.220319  -1.301529  2.171526
C    -0.621076  -1.320503  3.652654
C    -1.328983  -2.632155  4.027212
C    -1.716359  -2.683661  5.517461
N    -2.381754  -3.912198  5.848078
H    0.523952  -2.091030  1.969894
H    -1.106667  -1.533659  1.558976
H    -1.295152  -0.472702  3.865192
H    0.266854  -1.201090  4.293663
H    -0.679833  -3.492546  3.806931
H    -2.235101  -2.751281  3.412344
H    -2.351679  -1.802543  5.752900
H    -0.820859  -2.599867  6.148764
H    -2.294877  -4.262930  6.796815
H    -3.285750  -4.102181  5.424140
O    1.634561  1.027210  3.481738
H    0.741348  1.270218  3.798849
Pb    2.975422  -0.767207  -0.265919
