25
Energy: -603669.950779 eV PBE+vdW (tier 2 basis)
N    0.880313  -1.968395  2.913844
C    0.493067  -1.150004  1.765798
C    1.443728  0.034512  1.725540
O    1.255274  1.076792  2.466641
H    -3.783065  -2.858755  -0.247213
H    1.766544  -2.455479  2.794230
H    0.686312  -1.740492  0.859046
C    -0.990766  -0.750753  1.838282
C    -1.909747  -1.982358  1.872523
C    -3.383232  -1.661828  2.183589
C    -4.240601  -1.199607  1.011009
N    -4.618281  -2.372484  0.107630
H    -1.222789  -0.093064  0.986031
H    -1.152137  -0.148461  2.746043
H    -1.536028  -2.665964  2.645750
H    -1.811491  -2.545486  0.925899
H    -3.436745  -0.866448  2.941631
H    -3.868334  -2.530611  2.657804
H    -3.734578  -0.471316  0.365114
H    -5.191929  -0.767242  1.342500
H    -5.179319  -3.065655  0.623543
H    -5.172578  -2.067426  -0.704617
O    2.524769  -0.033590  1.020402
H    0.869901  -1.465470  3.800852
Pb    3.225710  2.005582  1.756130
