25
Energy: -603670.131179 eV PBE+vdW (tier 2 basis)
N    -0.220556  -2.372929  1.045818
C    0.105009  -0.925551  1.001196
C    1.112361  -0.532661  2.063309
O    1.621038  -1.405966  2.857835
H    -1.926781  -2.844130  1.290308
H    0.079137  -2.814378  0.174144
H    0.621427  -0.686454  0.054983
C    -1.160270  -0.034560  1.054681
C    -2.070599  -0.313613  2.271115
C    -3.535106  -0.647799  1.933118
C    -3.756544  -1.798044  0.954603
N    -2.988814  -3.037910  1.361471
H    -1.692117  -0.204786  0.108647
H    -0.849847  1.017017  1.025705
H    -2.080486  0.560295  2.934667
H    -1.646405  -1.128381  2.881862
H    -4.029714  0.230237  1.492187
H    -4.078873  -0.853081  2.867777
H    -3.416253  -1.560193  -0.060869
H    -4.818128  -2.063844  0.895081
H    -3.218138  -3.318942  2.322970
H    -3.219541  -3.831074  0.750661
O    1.488376  0.695319  2.155079
H    0.326227  -2.826803  1.783710
Pb    3.021597  0.211230  3.774941
