23
Energy: -166136.927191 eV PBE+vdW (tier 2 basis)
N    0.131018  0.097009  0.227215
C    0.062283  -0.094317  1.711450
C    1.466298  -0.094147  2.347426
O    2.520481  0.184356  1.723996
H    -0.028195  -0.798604  -0.251676
H    -0.612094  0.730649  -0.089525
H    -0.434765  0.805116  2.114306
C    -0.773747  -1.363508  2.079039
C    -1.790163  -1.169353  3.245143
C    -1.144924  -0.958158  4.616447
C    -2.847954  -0.111426  2.931660
H    -0.101788  -2.211300  2.278352
H    -1.365659  -1.633234  1.191900
H    -2.292956  -2.152606  3.274614
H    -1.899708  -1.036187  5.412431
H    -0.741451  0.064927  4.755914
H    -0.398505  -1.732085  4.869496
H    -2.442908  0.914178  2.933352
H    -3.632966  -0.120049  3.699015
H    -3.340248  -0.293659  1.967095
O    1.589437  -0.367178  3.602659
H    0.729140  -0.568330  4.069452
Cd    2.228185  0.804692  -0.322908
