23
Energy: -166137.377658 eV PBE+vdW (tier 2 basis)
N    0.982410  -0.256124  -0.179607
C    0.555005  -0.096642  1.272749
C    1.409845  -1.020442  2.162018
O    1.193867  -0.988819  3.411872
H    2.005564  -0.311737  -0.290617
H    0.565176  -1.122998  -0.569632
H    0.829989  0.927850  1.567439
C    -0.954448  -0.308469  1.437470
C    -1.508682  -1.749539  1.328366
C    -3.025457  -1.709320  1.545992
C    -1.163294  -2.464060  0.012116
H    -1.453360  0.338595  0.694160
H    -1.217846  0.107407  2.419938
H    -1.068560  -2.328302  2.162482
H    -3.531591  -1.175118  0.728830
H    -3.289867  -1.214761  2.489251
H    -3.436260  -2.726078  1.575199
H    -1.700755  -3.418741  -0.058196
H    -0.097575  -2.747914  -0.078185
H    -1.477225  -1.881751  -0.870151
O    2.305386  -1.748737  1.628136
H    0.636243  0.537880  -0.737860
Cd    2.830438  -2.453183  3.724229
