23
Energy: -166137.144464 eV PBE+vdW (tier 2 basis)
N    0.691159  0.151257  0.337085
C    0.082255  0.282246  1.701680
C    1.159980  0.756323  2.691918
O    2.370674  0.502898  2.532526
H    0.075062  -0.402560  -0.267542
H    0.793503  1.068230  -0.115186
H    -0.696559  1.060867  1.652482
C    -0.595459  -1.048848  2.145917
C    0.208765  -2.288946  2.624567
C    1.231938  -2.894697  1.641608
C    0.789656  -2.169818  4.038990
H    -1.250902  -1.335975  1.307567
H    -1.287485  -0.789228  2.960358
H    -0.572773  -3.069053  2.674252
H    1.404400  -3.968493  1.824795
H    2.299304  -2.553057  1.875796
H    0.960107  -2.830996  0.574843
H    1.167507  -3.141674  4.381413
H    0.021725  -1.856348  4.756897
H    1.626937  -1.460381  4.109808
O    0.819110  1.412387  3.763531
H    -0.132425  1.636810  3.822793
Cd    2.674465  -0.827529  0.808043
