23
Energy: -166136.660336 eV PBE+vdW (tier 2 basis)
N    -0.220186  0.623067  0.323374
C    -0.122569  0.356434  1.819771
C    1.244853  1.000103  2.192940
O    1.538706  1.306427  3.434577
H    -0.566314  -0.181454  -0.215815
H    -0.811266  1.435683  0.101729
H    -0.943052  0.905568  2.299811
C    -0.252184  -1.170116  2.055805
C    -0.462726  -1.720031  3.494236
C    0.835954  -1.927863  4.312372
C    -1.549697  -1.005683  4.300687
H    0.610861  -1.678440  1.598805
H    -1.137859  -1.490737  1.485081
H    -0.862834  -2.733858  3.328361
H    1.089939  -2.989917  4.469866
H    0.706311  -1.642307  5.400902
H    1.745544  -1.495858  3.865953
H    -2.477760  -0.831806  3.738539
H    -1.250830  0.035919  4.632070
H    -1.805173  -1.554215  5.215753
O    2.028313  1.251273  1.290749
H    0.768568  0.854644  0.037901
Cd    0.829508  0.543570  5.208065
