23
Energy: -166137.430055 eV PBE+vdW (tier 2 basis)
N    -0.261279  0.578583  1.480422
C    0.650604  0.048548  2.571911
C    2.119445  0.265904  2.152751
O    3.010123  0.144339  3.046711
H    -0.004047  0.192399  0.559652
H    -1.232038  0.278146  1.707959
H    0.470529  0.659986  3.468192
C    0.357423  -1.433577  2.849652
C    -0.944537  -1.704530  3.659387
C    -2.227554  -1.157015  3.018878
C    -1.041955  -3.223292  3.870230
H    1.205246  -1.827759  3.425520
H    0.339296  -1.988249  1.895577
H    -0.815665  -1.223578  4.642903
H    -2.354557  -1.491059  1.974774
H    -2.331100  -0.057886  3.093544
H    -3.108804  -1.532279  3.555928
H    -0.138870  -3.630036  4.342222
H    -1.209391  -3.755984  2.923632
H    -1.890755  -3.446373  4.531202
O    2.380325  0.533812  0.937918
H    -0.246625  1.605537  1.402632
Cd    4.583187  0.520362  1.519404
