23
Energy: -166136.882881 eV PBE+vdW (tier 2 basis)
N    -0.075929  -0.440563  -0.348024
C    -0.139951  -0.243394  1.139847
C    1.252048  -0.310306  1.793287
O    2.293561  -0.703165  1.214084
H    -0.727985  -1.183045  -0.630290
H    -0.364482  0.408732  -0.848742
H    -0.502188  0.782805  1.312665
C    -1.132506  -1.273320  1.751480
C    -1.421677  -1.185358  3.275815
C    -1.812566  0.222196  3.746805
C    -2.537564  -2.192514  3.592060
H    -0.775398  -2.290447  1.519981
H    -2.082250  -1.122543  1.212832
H    -0.521761  -1.526423  3.816131
H    -2.694093  0.598398  3.208086
H    -1.037005  1.009147  3.635278
H    -2.059084  0.208841  4.815294
H    -2.278388  -3.208487  3.268302
H    -3.488021  -1.906730  3.119818
H    -2.707387  -2.223962  4.677070
O    1.372390  0.051974  3.030019
H    0.513680  0.327561  3.439801
Cd    2.047898  -1.041042  -0.900988
