23
Energy: -166137.428795 eV PBE+vdW (tier 2 basis)
N    -0.111250  -0.958249  0.887942
C    0.491835  -0.432432  2.177833
C    1.936490  0.029445  1.912869
O    2.502499  0.731364  2.805359
H    0.512992  -1.644106  0.437076
H    -1.005599  -1.436542  1.125795
H    -0.090486  0.453724  2.469091
C    0.432805  -1.505425  3.275242
C    -0.995247  -1.799318  3.827551
C    -1.614599  -0.589246  4.528466
C    -1.959273  -2.436529  2.816304
H    1.055799  -1.144365  4.104714
H    0.900455  -2.432335  2.904364
H    -0.789274  -2.567480  4.593221
H    -1.908645  0.207155  3.826030
H    -0.940203  -0.156573  5.278629
H    -2.534452  -0.886159  5.048712
H    -1.506082  -3.256826  2.237952
H    -2.430069  -1.696774  2.137428
H    -2.819072  -2.876901  3.338942
O    2.510321  -0.321311  0.833649
H    -0.306957  -0.217063  0.200149
Cd    4.363013  0.761945  1.591684
