23
Energy: -166137.230331 eV PBE+vdW (tier 2 basis)
N    -0.872674  0.365333  0.273269
C    -0.773047  0.029449  1.754138
C    0.485910  0.676523  2.332224
O    1.574649  0.538680  1.687810
H    -1.611454  -0.200855  -0.173428
H    -1.100123  1.357659  0.105121
H    -1.660182  0.446599  2.243456
C    -0.673514  -1.502943  1.915405
C    -0.352412  -2.073008  3.333239
C    1.126323  -2.028129  3.755797
C    -1.317152  -1.587388  4.416523
H    0.079776  -1.876995  1.203562
H    -1.650168  -1.911431  1.612340
H    -0.537409  -3.153810  3.194594
H    1.307365  -2.719773  4.589446
H    1.420323  -1.035280  4.193052
H    1.814362  -2.294979  2.943154
H    -1.194166  -0.518851  4.649535
H    -1.154092  -2.138474  5.351042
H    -2.362641  -1.750626  4.122867
O    0.411714  1.167415  3.499034
H    0.018703  0.157537  -0.206825
Cd    2.625907  0.977347  3.643643
