18
Energy: -100594.106306 eV PBE+vdW (tier 2 basis)
N    -1.249838  -1.122630  1.256344
C    0.004242  -0.833165  2.022004
C    0.715777  0.353950  1.320660
O    0.134954  1.021301  0.495971
H    -0.983801  -1.685970  0.437356
H    -1.489670  -0.212532  0.818565
H    -0.281288  -0.438854  3.013684
C    0.896880  -2.062335  2.225384
C    0.318452  -3.105303  3.162742
O    -0.938102  -3.191107  3.353183
N    1.145023  -3.940138  3.765969
H    1.874404  -1.729121  2.598721
H    1.102196  -2.555293  1.258626
H    2.152831  -3.885194  3.644191
H    0.783670  -4.675018  4.371718
O    1.952993  0.539477  1.781582
H    2.344496  1.331968  1.355556
Sr    -2.940218  -2.353035  2.707743
