18
Energy: -100593.217945 eV PBE+vdW (tier 2 basis)
N    -0.330965  0.482129  0.268434
C    0.021160  -0.269266  1.522870
C    1.487262  -0.119228  1.956533
O    1.992948  -0.856987  2.762067
H    -0.336752  1.496921  0.417908
H    -1.342853  0.072943  0.039126
H    -0.589247  0.187081  2.317433
C    -0.361436  -1.753712  1.392643
C    -1.797253  -1.997060  0.959268
O    -2.311130  -3.179198  1.279713
N    -2.397352  -1.075190  0.292723
H    -0.170540  -2.224384  2.364123
H    0.307055  -2.262897  0.677932
H    0.324203  0.288795  -0.498064
H    -3.355348  -1.285847  0.003815
O    2.070564  0.929514  1.343092
H    2.988841  1.020309  1.674580
Sr    -3.150156  -5.062924  1.800804
