18
Energy: -100593.389986 eV PBE+vdW (tier 2 basis)
N    0.040336  0.880101  0.445099
C    0.213761  0.251770  1.718192
C    1.723618  0.157641  1.989441
O    2.592804  -0.138657  1.242069
H    0.482600  1.791136  0.343962
H    -0.925884  0.921334  0.127489
H    -0.249894  0.799461  2.587225
C    -0.416476  -1.161307  1.638102
C    -0.446520  -1.965436  2.915409
O    -0.291694  -1.409156  4.053068
N    -0.665308  -3.264941  2.832314
H    0.084553  -1.722057  0.835995
H    -1.463522  -1.035598  1.313224
H    -0.787281  -3.733417  1.937841
H    -0.747408  -3.831525  3.674464
O    2.048961  0.505266  3.362995
H    3.031216  0.501687  3.380255
Sr    0.498138  0.302700  5.273857
