18
Energy: -100594.510523 eV PBE+vdW (tier 2 basis)
N    0.180325  -0.019280  -0.067116
C    0.122204  -0.235684  1.410082
C    1.382278  0.258947  2.127002
O    2.345913  0.745341  1.442879
H    -0.638680  -0.801283  -0.430267
H    -0.057357  0.940156  -0.334365
H    -0.719271  0.361409  1.793066
C    -0.163335  -1.729964  1.698489
C    -1.328497  -2.253872  0.857586
O    -1.523913  -1.791003  -0.297179
N    -2.089077  -3.221517  1.353517
H    -0.348334  -1.857305  2.771238
H    0.716626  -2.343349  1.444400
H    -1.954384  -3.603589  2.282965
H    -2.829293  -3.616051  0.775895
O    1.430720  0.180024  3.398353
H    1.111137  -0.225419  -0.446535
Sr    3.533769  1.246318  3.449462
