18
Energy: -100592.87355 eV PBE+vdW (tier 2 basis)
N    -0.963197  0.328297  0.416432
C    -0.530764  -0.072043  1.733589
C    0.984953  -0.339580  1.810722
O    1.695206  -0.547398  0.867261
H    -0.885203  1.335883  0.286005
H    -0.394147  -0.116027  -0.308140
H    -0.779454  0.725147  2.449251
C    -1.341369  -1.362027  2.124908
C    -1.631729  -1.630423  3.569067
O    -2.763907  -2.185914  3.887889
N    -0.774434  -1.310637  4.508759
H    -0.846321  -2.256283  1.707060
H    -2.300367  -1.271016  1.598305
H    0.141535  -0.903174  4.250786
H    -0.976653  -1.491169  5.489171
O    1.434981  -0.332154  3.114154
H    2.401792  -0.495788  3.102945
Sr    -4.719923  -3.110694  4.031837
