18
Energy: -100594.858694 eV PBE+vdW (tier 2 basis)
N    -0.032589  -0.134177  -0.217265
C    0.229495  0.273289  1.222574
C    1.702572  -0.066351  1.503962
O    2.116329  -1.169355  1.017132
H    0.521220  -1.000636  -0.380897
H    -1.026117  -0.308472  -0.424821
H    0.041919  1.347934  1.319062
C    -0.689296  -0.564068  2.153512
C    -0.194947  -0.720286  3.597903
O    0.898704  -1.286611  3.848149
N    -0.996941  -0.291646  4.565160
H    -0.740483  -1.595944  1.769401
H    -1.705441  -0.149879  2.130906
H    -1.892509  0.149657  4.382380
H    -0.737558  -0.439332  5.538702
O    2.335872  0.645670  2.322718
H    0.303993  0.581126  -0.878804
Sr    3.198775  -1.416917  3.227224
