18
Energy: -100593.29846 eV PBE+vdW (tier 2 basis)
N    3.872228  1.587753  -0.344651
C    4.279570  1.466076  1.092171
C    5.806743  1.288563  1.109941
O    6.416584  0.959584  0.117819
H    3.972051  2.549691  -0.686584
H    4.498745  0.995788  -0.916009
H    3.994376  2.392979  1.605018
C    3.590077  0.257512  1.769821
C    2.090620  0.134185  1.532836
O    1.416786  -0.560603  2.445086
N    1.592344  0.651167  0.468233
H    3.789691  0.323895  2.846027
H    4.055322  -0.681902  1.425925
H    2.817081  1.272107  -0.352286
H    0.587042  0.516077  0.338473
O    6.306801  1.506465  2.328879
H    7.277750  1.370727  2.304319
Sr    0.230188  -1.688066  3.802981
