18
Energy: -100593.256386 eV PBE+vdW (tier 2 basis)
N    -0.122162  0.205785  -0.148919
C    -0.008887  -0.241903  1.248179
C    1.338128  0.002257  1.963358
O    1.733360  -0.694384  2.869967
H    0.685662  -0.087828  -0.704136
H    -0.149475  1.225717  -0.200773
H    -0.748525  0.337777  1.826117
C    -0.358019  -1.741595  1.391317
C    -1.700373  -2.141979  0.844176
O    -2.316554  -3.172951  1.348664
N    -2.191151  -1.451711  -0.147152
H    -0.290139  -2.022746  2.448457
H    0.400624  -2.353870  0.871656
H    -1.548845  -0.642423  -0.467094
H    -3.087010  -1.675953  -0.575104
O    1.960692  1.083328  1.467591
H    2.784899  1.228882  1.977047
Sr    -3.079225  -4.914405  2.374649
