18
Energy: -100594.896382 eV PBE+vdW (tier 2 basis)
N    0.383398  -0.320005  -0.102634
C    0.083280  0.034043  1.344886
C    1.443052  0.394783  1.973413
O    2.481426  0.046386  1.317059
H    -0.100671  -1.159127  -0.444328
H    0.156710  0.453927  -0.741963
H    -0.589492  0.899273  1.352397
C    -0.581067  -1.110238  2.138614
C    0.302163  -2.290473  2.563875
O    1.467478  -2.131427  3.008390
N    -0.247527  -3.500456  2.495614
H    -1.483493  -1.456268  1.615480
H    -0.937793  -0.652642  3.075601
H    -1.202019  -3.653616  2.185349
H    0.260664  -4.305481  2.857285
O    1.455041  0.835581  3.149379
H    1.427343  -0.459055  -0.113923
Sr    3.286937  -0.663919  3.543447
