18
Energy: -100593.163152 eV PBE+vdW (tier 2 basis)
N    -0.041602  0.051178  -0.484364
C    -0.404104  0.278047  0.893391
C    0.732975  0.564144  1.900355
O    0.557137  0.645118  3.114380
H    0.199894  0.915918  -0.965375
H    0.746806  -0.587823  -0.587340
H    -1.031358  1.185165  0.925403
C    -1.288449  -0.929461  1.360806
C    -2.280348  -0.717692  2.472970
O    -3.452745  -1.282935  2.380881
N    -1.962391  0.009089  3.508327
H    -0.645046  -1.777873  1.650961
H    -1.839818  -1.246829  0.468352
H    -0.965363  0.384391  3.543450
H    -2.613327  0.152091  4.277063
O    1.911480  0.739045  1.321854
H    2.579362  0.952020  2.008456
Sr    -5.306582  -2.327802  2.027582
