18
Energy: -100594.524161 eV PBE+vdW (tier 2 basis)
N    -0.105506  0.302375  0.020335
C    -0.011899  0.047106  1.498920
C    1.337776  -0.636025  1.772528
O    2.285520  -0.477892  0.926528
H    -0.767759  1.049619  -0.213644
H    0.820544  0.524010  -0.368445
H    0.025746  1.008679  2.034180
C    -1.235491  -0.754310  1.970466
C    -1.490103  -1.985415  1.099021
O    -0.989161  -2.058449  -0.048514
N    -2.271859  -2.945194  1.591757
H    -2.130093  -0.112882  1.938963
H    -1.090945  -1.033585  3.021505
H    -2.693027  -2.888756  2.512625
H    -2.528379  -3.729293  0.996237
O    1.499691  -1.292028  2.849261
H    -0.462804  -0.688766  -0.337461
Sr    3.772753  -1.702192  2.322740
