18
Energy: -100594.824428 eV PBE+vdW (tier 2 basis)
N    1.560962  -0.711408  0.405072
C    0.623570  -0.558447  1.551443
C    0.922274  -1.681519  2.563240
O    1.449257  -2.737748  2.205130
H    2.472962  -0.328842  0.677238
H    1.247253  -0.107515  -0.361144
H    0.780847  0.409482  2.056969
C    -0.861128  -0.567676  1.108691
C    -1.375911  -1.814595  0.392475
O    -0.594253  -2.672097  -0.101819
N    -2.690673  -1.943527  0.280433
H    -1.018476  0.290566  0.433960
H    -1.496590  -0.362196  1.982196
H    -3.344423  -1.267891  0.665440
H    -3.079639  -2.734238  -0.230068
O    0.585840  -1.533925  3.824641
H    0.252968  -0.642797  4.050489
Sr    1.627159  -3.331630  -0.105390
