18
Energy: -100594.003951 eV PBE+vdW (tier 2 basis)
N    -0.677761  -1.502366  0.747112
C    -0.160027  -0.884101  2.016076
C    0.530457  0.489490  1.796608
O    1.347993  0.939289  2.554516
H    0.135604  -1.770793  0.177936
H    -1.091462  -0.732758  0.202556
H    -1.037598  -0.650893  2.643649
C    0.788470  -1.800687  2.799853
C    0.115923  -2.947210  3.514120
O    -0.902677  -3.523075  3.003726
N    0.612559  -3.363285  4.663374
H    1.345117  -1.168198  3.504984
H    1.552140  -2.230125  2.127187
H    1.411719  -2.910046  5.099132
H    0.205583  -4.165201  5.142126
O    0.039515  1.090415  0.693724
H    0.448889  1.976923  0.604199
Sr    -2.261445  -3.488381  1.211123
