  MPI-parallelism will be employed.
------------------------------------------------------------
          Invoking FHI-aims ...
          Version 031011
          Git rev. (modified): 1cc2a92... Merge branch master of atalla[at]fhiaim[...]
          Compiled on 2016/09/21 at 15:08:42

          When using FHI-aims, please cite the following reference:

          Volker Blum, Ralf Gehrke, Felix Hanke, Paula Havu,
          Ville Havu, Xinguo Ren, Karsten Reuter, and Matthias Scheffler,
          'Ab Initio Molecular Simulations with Numeric Atom-Centered Orbitals: FHI-aims',
          Computer Physics Communications 180, 2175-2196 (2009)

------------------------------------------------------------

  Date     :  20161129, Time     :  145710.139
  Time zero on CPU 1             :   0.400000000000000E-01  s.
  Internal wall clock time zero  :           249663430.139  s.

  Using        8 parallel tasks.
  Task        0 on host dirac reporting.
  Task        1 on host dirac reporting.
  Task        2 on host dirac reporting.
  Task        3 on host dirac reporting.
  Task        4 on host dirac reporting.
  Task        5 on host dirac reporting.
  Task        6 on host dirac reporting.
  Task        7 on host dirac reporting.
  Obtaining array dimensions for all initial allocations:
  Parsing control.in ...
  Parsing geometry.in ...
 
  Basic array size parameters: 
  | Number of species                 :        5
  | Number of atoms                   :       14
  | Max. basis fn. angular momentum   :        4
  | Max. atomic/ionic basis occupied n:        4
  | Max. number of basis fn. types    :        3
  | Max. radial fns per species/type  :        8
  | Max. logarithmic grid size        :     1376
  | Max. radial integration grid size :       95
  | Max. angular integration grid size:      434
  | Max. angular grid division number :        8
  | Radial grid for Hartree potential :     1376
  | Number of spin channels           :        1

------------------------------------------------------------
          Reading file control.in.
------------------------------------------------------------
  XC: Using PBE gradient-corrected functionals.
  Spin treatment: No spin polarisation.
  Scalar relativistic treatment of kinetic energy: on-site free-atom approximation to ZORA.
  Using non-empirical van der Waals correction (Hirshfeld partitioning):
  Charged system requested: Charge =   0.200000E+01.
  Occupation type: Gaussian broadening, width =   0.500000E-01 eV.
  Using pulay charge density mixing.
  Pulay mixing - number of memorized iterations:   10
  Charge density mixing - mixing parameter:     0.5000
  Convergence accuracy of self-consistent charge density: 0.1000E-03
  Convergence accuracy of sum of eigenvalues: 0.1000E-01
  Convergence accuracy of total energy: 0.1000E-04
  Convergence accuracy of forces: 0.1000E-03
  Maximum number of s.-c. iterations  :  1000
 
  Reading configuration options for species H                   .
  | Found nuclear charge :   1.0000
  | Found atomic mass :    1.00794000000000      amu
  | Found l_max for Hartree potential  :   6
  | Found cutoff potl. onset [A], width [A], scale factor :    4.00000    2.00000    1.00000
  | Threshold for basis-dependent cutoff potential is   0.100000E-03
  | Found data for basic radial integration grid :    24 points, outermost radius =    7.000 A
  | Found multiplier for basic radial grid :   2
  | Found angular grid specification: user-specified.
  | Specified grid contains     6 separate shells.
  | Check grid settings after all constraints further below.
  | Found free-atom valence shell :  1 s   1.000
  | Found free-ion valence shell :  1 s   0.500
  | Found hydrogenic basis function :  2 s   2.100
  | Found hydrogenic basis function :  2 p   3.500
  | Found hydrogenic basis function :  1 s   0.850
  | Found hydrogenic basis function :  2 p   3.700
  | Found hydrogenic basis function :  2 s   1.200
  | Found hydrogenic basis function :  3 d   7.000
  Species H                   : Missing cutoff potential type.
  Defaulting to exp(1/x)/(1-x)^2 type cutoff potential.
  Species H : No 'logarithmic' tag. Using default grid for free atom:
  | Default logarithmic grid data [bohr] : 0.1000E-03 0.1000E+03 0.1012E+01
  Species H : On-site basis accuracy parameter (for Gram-Schmidt orthonormalisation) not specified.
  Using default value basis_acc =  0.1000000E-03.
  Species H                   : Using default innermost maximum threshold i_radial=  2 for radial functions.
  Species H                   : Default cutoff onset for free atom density etc. : 0.40000000E+01 AA.
  Species H                   : Basic radial grid will be enhanced according to radial_multiplier =   2, to contain    49 grid points.
 
  Reading configuration options for species C                   .
  | Found nuclear charge :   6.0000
  | Found atomic mass :    12.0107000000000      amu
  | Found l_max for Hartree potential  :   6
  | Found cutoff potl. onset [A], width [A], scale factor :    4.00000    2.00000    1.00000
  | Threshold for basis-dependent cutoff potential is   0.100000E-03
  | Found data for basic radial integration grid :    34 points, outermost radius =    7.000 A
  | Found multiplier for basic radial grid :   2
  | Found angular grid specification: user-specified.
  | Specified grid contains     6 separate shells.
  | Check grid settings after all constraints further below.
  | Found free-atom valence shell :  2 s   2.000
  | Found free-atom valence shell :  2 p   2.000
  | Found free-ion valence shell :  2 s   1.000
  | Found free-ion valence shell :  2 p   1.000
  | Found hydrogenic basis function :  2 p   1.700
  | Found hydrogenic basis function :  3 d   6.000
  | Found hydrogenic basis function :  2 s   4.900
  | Found hydrogenic basis function :  4 f   9.800
  | Found hydrogenic basis function :  3 p   5.200
  | Found hydrogenic basis function :  3 s   4.300
  | Found hydrogenic basis function :  5 g  14.400
  | Found hydrogenic basis function :  3 d   6.200
  Species C                   : Missing cutoff potential type.
  Defaulting to exp(1/x)/(1-x)^2 type cutoff potential.
  Species C : No 'logarithmic' tag. Using default grid for free atom:
  | Default logarithmic grid data [bohr] : 0.1000E-03 0.1000E+03 0.1012E+01
  Species C : On-site basis accuracy parameter (for Gram-Schmidt orthonormalisation) not specified.
  Using default value basis_acc =  0.1000000E-03.
  Species C                   : Using default innermost maximum threshold i_radial=  2 for radial functions.
  Species C                   : Default cutoff onset for free atom density etc. : 0.40000000E+01 AA.
  Species C                   : Basic radial grid will be enhanced according to radial_multiplier =   2, to contain    69 grid points.
 
  Reading configuration options for species N                   .
  | Found nuclear charge :   7.0000
  | Found atomic mass :    14.0067000000000      amu
  | Found l_max for Hartree potential  :   6
  | Found cutoff potl. onset [A], width [A], scale factor :    4.00000    2.00000    1.00000
  | Threshold for basis-dependent cutoff potential is   0.100000E-03
  | Found data for basic radial integration grid :    35 points, outermost radius =    7.000 A
  | Found multiplier for basic radial grid :   2
  | Found angular grid specification: user-specified.
  | Specified grid contains     6 separate shells.
  | Check grid settings after all constraints further below.
  | Found free-atom valence shell :  2 s   2.000
  | Found free-atom valence shell :  2 p   3.000
  | Found free-ion valence shell :  2 s   1.000
  | Found free-ion valence shell :  2 p   2.000
  | Found hydrogenic basis function :  2 p   1.800
  | Found hydrogenic basis function :  3 d   6.800
  | Found hydrogenic basis function :  3 s   5.800
  | Found hydrogenic basis function :  4 f  10.800
  | Found hydrogenic basis function :  3 p   5.800
  | Found hydrogenic basis function :  1 s   0.800
  | Found hydrogenic basis function :  5 g  16.000
  | Found hydrogenic basis function :  3 d   4.900
  Species N                   : Missing cutoff potential type.
  Defaulting to exp(1/x)/(1-x)^2 type cutoff potential.
  Species N : No 'logarithmic' tag. Using default grid for free atom:
  | Default logarithmic grid data [bohr] : 0.1000E-03 0.1000E+03 0.1012E+01
  Species N : On-site basis accuracy parameter (for Gram-Schmidt orthonormalisation) not specified.
  Using default value basis_acc =  0.1000000E-03.
  Species N                   : Using default innermost maximum threshold i_radial=  2 for radial functions.
  Species N                   : Default cutoff onset for free atom density etc. : 0.40000000E+01 AA.
  Species N                   : Basic radial grid will be enhanced according to radial_multiplier =   2, to contain    71 grid points.
 
  Reading configuration options for species O                   .
  | Found nuclear charge :   8.0000
  | Found atomic mass :    15.9994000000000      amu
  | Found l_max for Hartree potential  :   6
  | Found cutoff potl. onset [A], width [A], scale factor :    4.00000    2.00000    1.00000
  | Threshold for basis-dependent cutoff potential is   0.100000E-03
  | Found data for basic radial integration grid :    36 points, outermost radius =    7.000 A
  | Found multiplier for basic radial grid :   2
  | Found angular grid specification: user-specified.
  | Specified grid contains     6 separate shells.
  | Check grid settings after all constraints further below.
  | Found free-atom valence shell :  2 s   2.000
  | Found free-atom valence shell :  2 p   4.000
  | Found free-ion valence shell :  2 s   1.000
  | Found free-ion valence shell :  2 p   3.000
  | Found hydrogenic basis function :  2 p   1.800
  | Found hydrogenic basis function :  3 d   7.600
  | Found hydrogenic basis function :  3 s   6.400
  | Found hydrogenic basis function :  4 f  11.600
  | Found hydrogenic basis function :  3 p   6.200
  | Found hydrogenic basis function :  3 d   5.600
  | Found hydrogenic basis function :  5 g  17.600
  | Found hydrogenic basis function :  1 s   0.750
  Species O                   : Missing cutoff potential type.
  Defaulting to exp(1/x)/(1-x)^2 type cutoff potential.
  Species O : No 'logarithmic' tag. Using default grid for free atom:
  | Default logarithmic grid data [bohr] : 0.1000E-03 0.1000E+03 0.1012E+01
  Species O : On-site basis accuracy parameter (for Gram-Schmidt orthonormalisation) not specified.
  Using default value basis_acc =  0.1000000E-03.
  Species O                   : Using default innermost maximum threshold i_radial=  2 for radial functions.
  Species O                   : Default cutoff onset for free atom density etc. : 0.40000000E+01 AA.
  Species O                   : Basic radial grid will be enhanced according to radial_multiplier =   2, to contain    73 grid points.
 
  Reading configuration options for species Ca                  .
  | Found nuclear charge :  20.0000
  | Found atomic mass :    40.0780000000000      amu
  | Found l_max for Hartree potential  :   6
  | Found cutoff potl. onset [A], width [A], scale factor :    5.00000    2.00000    1.00000
  | Threshold for basis-dependent cutoff potential is   0.100000E-03
  | Found data for basic radial integration grid :    47 points, outermost radius =    7.000 A
  | Found multiplier for basic radial grid :   2
  | Found angular grid specification: user-specified.
  | Specified grid contains     5 separate shells.
  | Check grid settings after all constraints further below.
  | Found free-atom valence shell :  4 s   2.000
  | Found free-atom valence shell :  3 p   6.000
  | Found free-ion valence shell :  4 s   1.000
  | Found free-ion valence shell :  3 p   6.000
  | Found ionic basis function :  3 d , default cutoff radius.
  | Found ionic basis function :  4 p , default cutoff radius.
  | Found hydrogenic basis function :  3 d   2.300
  | Found hydrogenic basis function :  4 f   4.800
  | Found ionic basis function :  4 s , default cutoff radius.
  Species Ca                  : Missing cutoff potential type.
  Defaulting to exp(1/x)/(1-x)^2 type cutoff potential.
  Species Ca: No 'logarithmic' tag. Using default grid for free atom:
  | Default logarithmic grid data [bohr] : 0.1000E-03 0.1000E+03 0.1012E+01
  | Will include ionic basis functions of  1.0-fold positive Ca                   ion.
  Species Ca: On-site basis accuracy parameter (for Gram-Schmidt orthonormalisation) not specified.
  Using default value basis_acc =  0.1000000E-03.
  Species Ca                  : Using default innermost maximum threshold i_radial=  2 for radial functions.
  Species Ca                  : Default cutoff onset for free atom density etc. : 0.50000000E+01 AA.
  Species Ca                  : Basic radial grid will be enhanced according to radial_multiplier =   2, to contain    95 grid points.
 
  Finished reading input file 'control.in'. Consistency checks are next.
 
  Target number of points in a grid batch is not set. Defaulting to  100
  Method for grid partitioning is not set. Defaulting to parallel hash+maxmin partitioning.
  Batch size limit is not set. Defaulting to    200
  By default, will store active basis functions for each batch.
  If in need of memory, prune_basis_once .false. can be used to disable this option.
  communication_type for Hartree potential was not specified.
  Defaulting to calc_hartree .
  Note that you may want to use 'communication_type shmem' instead,
  but only if you have built a code version with shared memory support.
  Pulay mixer: Number of initial linear mixing iterations not set.
  Defaulting to    0 iterations.
  Work space size for distributed Hartree potential not set.
  Defaulting to   0.200000E+03 MB.
  Algorithm-dependent basis array size parameters:
  | n_max_pulay                         :       10
  Geometry relaxation not requested: no relaxation will be performed.
  Handling of forces: Unphysical translation and rotation will be removed from forces.
  No accuracy limit for integral partition fn. given. Defaulting to 0.1000E-14.
  No threshold value for u(r) in integrations given. Defaulting to 0.1000E-05.
  No accuracy for occupation numbers given. Defaulting to 0.1000E-07.
  No threshold value for occupation numbers given. Defaulting to 0.0000E+00.
  No accuracy for fermi level given. Defaulting to 0.1000E-19.
  Maximum # of iterations to find E_F not set. Defaulting to  200.
  Preferred method for the eigenvalue solver ('KS_method') not specified in 'control.in'.
  Calling blacs routine to test compilation state
  The best choice would be 'elpa', but your version of FHI-aims is compiled without scalapack support.
  Defaulting to 'lapack_fast' instead (serial solution, time will not improve with more CPUs).
  Threshold for basis singularities not set.
  Default threshold for basis singularities: 0.1000E-04
  Partitioning for integrals was not defined. Using the partition function of Stratmann and coworkers.
  Partitioning for Hartree potential was not defined. Using partition_type for integrals.
  No q(lm)/r^(l+1) cutoff set for long-range Hartree potential.
  | Using default value of  0.100000E-09 .
  | Verify using the multipole_threshold keyword.
------------------------------------------------------------


------------------------------------------------------------
          Reading geometry description geometry.in.
------------------------------------------------------------
 * Warning: Initial charge and total charge of the system are inconsistent.
 * Selected charge in control.in:     2.0000* Sum of initial charges in geometry.in:     0.0000
  Input structure read successfully. 
  The structure contains   14 atoms,  and a total of     66.000 electrons.
 
  Input geometry:
  | No unit cell requested.
  | Atomic structure: 
  |       Atom                x [A]            y [A]            z [A]
  |    1: Species N         -0.128325         0.131691         0.072025
  |    2: Species C         -0.041908        -0.058533         1.582407
  |    3: Species C          1.436299        -0.093157         1.978258
  |    4: Species O          2.339501         0.186503         1.110840
  |    5: Species H         -0.069645        -0.773173        -0.419070
  |    6: Species H          0.652633         0.716579        -0.268489
  |    7: Species H         -1.021116         0.569374        -0.197650
  |    8: Species H         -0.459019         0.859153         2.027915
  |    9: Species C         -0.843618        -1.275358         2.027667
  |   10: Species H         -1.900680        -1.165372         1.754719
  |   11: Species H         -0.791573        -1.361637         3.118895
  |   12: Species H         -0.452307        -2.204516         1.591059
  |   13: Species O          1.745438        -0.365046         3.181360
  |   14: Species Ca         3.869320        -0.058508         2.736065
 
  Number of empty states per atom not set in control.in - providing a guess from actual geometry.
  | Total number of empty states used during s.c.f. cycle:       32
  If you use a very high smearing, use empty_states (per atom!) in control.in to increase this value.

  Structure-dependent array size parameters: 
  | Maximum number of distinct radial functions  :       51
  | Maximum number of basis functions            :      370
  | Number of Kohn-Sham states (occupied + empty):       66
------------------------------------------------------------

------------------------------------------------------------
          Preparing all fixed parts of the calculation.
------------------------------------------------------------
  Determining machine precision:
    2.225073858507201E-308
  Setting up grids for atomic and cluster calculations.

  Creating wave function, potential, and density for free atoms.

  Species: H

  List of occupied orbitals and eigenvalues:
    n    l              occ      energy [Ha]    energy [eV]
    1    0           1.0000        -0.238386        -6.4868


  Species: C

  List of occupied orbitals and eigenvalues:
    n    l              occ      energy [Ha]    energy [eV]
    1    0           2.0000       -10.049212      -273.4530
    2    0           2.0000        -0.504761       -13.7352
    2    1           2.0000        -0.193631        -5.2690


  Species: N

  List of occupied orbitals and eigenvalues:
    n    l              occ      energy [Ha]    energy [eV]
    1    0           2.0000       -14.144983      -384.9046
    2    0           2.0000        -0.682735       -18.5782
    2    1           3.0000        -0.260361        -7.0848


  Species: O

  List of occupied orbitals and eigenvalues:
    n    l              occ      energy [Ha]    energy [eV]
    1    0           2.0000       -18.927378      -515.0401
    2    0           2.0000        -0.880539       -23.9607
    2    1           4.0000        -0.331811        -9.0290


  Species: Ca

  List of occupied orbitals and eigenvalues:
    n    l              occ      energy [Ha]    energy [eV]
    1    0           2.0000      -145.831514     -3968.2774
    2    0           2.0000       -15.233074      -414.5130
    3    0           2.0000        -1.727366       -47.0040
    4    0           2.0000        -0.136117        -3.7039
    2    1           6.0000       -12.303655      -334.7995
    3    1           6.0000        -1.026016       -27.9193

  Creating fixed part of basis set: Ionic, confined, hydrogenic.
 
  H                    hydrogenic:
 
  List of hydrogenic basis orbitals: 
    n    l      effective z      eigenvalue [eV]  inner max. [A]     outer max. [A]     cutoff onset [A]   
    2    0         2.100000       -14.9965           0.193243           1.317208           4.000000
    2    1         3.500000       -41.6672           0.602369           0.602369           2.709566
    1    0         0.850000        -9.8292           0.624871           0.624871           4.000000
    2    1         3.700000       -46.5653           0.573622           0.573622           2.580256
    2    0         1.200000        -4.5995           0.334980           2.228188           4.000000
    3    2         7.000000       -74.0753           0.680699           0.680699           2.457117
 
 
  C                    hydrogenic:
 
  List of hydrogenic basis orbitals: 
    n    l      effective z      eigenvalue [eV]  inner max. [A]     outer max. [A]     cutoff onset [A]   
    2    1         1.700000        -9.8152           1.245706           1.245706           4.000000
    3    2         6.000000       -54.4226           0.792453           0.792453           2.860515
    2    0         4.900000       -81.6681           0.082559           0.562749           2.056339
    4    3         9.800000       -81.6681           0.863254           0.863254           2.690902
    3    1         5.200000       -40.8774           0.305389           1.215618           3.564598
    3    0         4.300000       -27.9508           0.091041           1.610311           4.000000
    5    4        14.400000      -112.8510           0.917666           0.917666           2.594002
    3    2         6.200000       -58.1113           0.763917           0.763917           2.757506
 
 
  N                    hydrogenic:
 
  List of hydrogenic basis orbitals: 
    n    l      effective z      eigenvalue [eV]  inner max. [A]     outer max. [A]     cutoff onset [A]   
    2    1         1.800000       -11.0118           1.177451           1.177451           4.000000
    3    2         6.800000       -69.9029           0.704619           0.704619           2.512557
    3    0         5.800000       -50.8549           0.067388           1.191934           3.287905
    4    3        10.800000       -99.1854           0.786571           0.786571           2.451870
    3    1         5.800000       -50.8549           0.274880           1.094176           3.169505
    1    0         0.800000        -8.7059           0.662839           0.662839           4.000000
    5    4        16.000000      -139.3222           0.825990           0.825990           2.334858
    3    2         4.900000       -36.2967           0.968267           0.968267           3.495147
 
 
  O                    hydrogenic:
 
  List of hydrogenic basis orbitals: 
    n    l      effective z      eigenvalue [eV]  inner max. [A]     outer max. [A]     cutoff onset [A]   
    2    1         1.800000       -11.0118           1.178562           1.178562           4.000000
    3    2         7.600000       -87.3182           0.624125           0.624125           2.252903
    3    0         6.400000       -61.9209           0.061167           1.081902           2.984386
    4    3        11.600000      -114.4238           0.731631           0.731631           2.280613
    3    1         6.200000       -58.1113           0.255680           1.030270           2.984386
    3    2         5.600000       -47.4081           0.847233           0.847233           3.058254
    5    4        17.600000      -168.5799           0.749740           0.749740           2.119318
    1    0         0.750000        -7.6499           0.705284           0.705284           4.000000
 
 
  Ca                   ion:

  List of free ionic orbitals and eigenvalues:
    n    l      energy [Ha]    energy [eV]
    1    0      -146.094633     -3975.4372
    2    0       -15.493962      -421.6121
    3    0        -1.984196       -53.9927
    4    0        -0.329457        -8.9650
    2    1       -12.564632      -341.9010
    3    1        -1.281792       -34.8793


  List of ionic basis orbitals and eigenvalues:
    n    l      energy [Ha]    energy [eV]    wfn radius [A]
    3    2        -0.306476        -8.3396       4.694077
    4    1        -0.217197        -5.9102       5.000000
    4    0        -0.329374        -8.9627       5.000000

 
  Ca                   hydrogenic:
 
  List of hydrogenic basis orbitals: 
    n    l      effective z      eigenvalue [eV]  inner max. [A]     outer max. [A]     cutoff onset [A]   
    3    2         2.300000        -7.9634           2.069336           2.069336           5.000000
    4    3         4.800000       -19.5909           1.765268           1.765268           5.000000
 

  Adding cutoff potential to free-atom effective potential.
  Creating atomic-like basis functions for current effective potential.
  Assembling full basis from fixed parts.
  | Species H :   atomic orbital   1 s accepted.
  | Species H :    hydro orbital   2 s accepted.
  | Species H :    hydro orbital   1 s accepted.
  | Species H :    hydro orbital   2 s accepted.
  | Species H :    hydro orbital   2 p accepted.
  | Species H :    hydro orbital   2 p accepted.
  | Species H :    hydro orbital   3 d accepted.
  | Species C :    hydro orbital   2 s accepted.
  | Species C :   atomic orbital   1 s accepted.
  | Species C :   atomic orbital   2 s accepted.
  | Species C :    hydro orbital   3 s accepted.
  | Species C :    hydro orbital   3 p accepted.
  | Species C :   atomic orbital   2 p accepted.
  | Species C :    hydro orbital   2 p accepted.
  | Species C :    hydro orbital   3 d accepted.
  | Species C :    hydro orbital   3 d accepted.
  | Species C :    hydro orbital   4 f accepted.
  | Species C :    hydro orbital   5 g accepted.
  | Species N :    hydro orbital   3 s accepted.
  | Species N :   atomic orbital   1 s accepted.
  | Species N :   atomic orbital   2 s accepted.
  | Species N :    hydro orbital   1 s accepted.
  | Species N :    hydro orbital   3 p accepted.
  | Species N :   atomic orbital   2 p accepted.
  | Species N :    hydro orbital   2 p accepted.
  | Species N :    hydro orbital   3 d accepted.
  | Species N :    hydro orbital   3 d accepted.
  | Species N :    hydro orbital   4 f accepted.
  | Species N :    hydro orbital   5 g accepted.
  | Species O :    hydro orbital   3 s accepted.
  | Species O :   atomic orbital   1 s accepted.
  | Species O :   atomic orbital   2 s accepted.
  | Species O :    hydro orbital   1 s accepted.
  | Species O :    hydro orbital   3 p accepted.
  | Species O :   atomic orbital   2 p accepted.
  | Species O :    hydro orbital   2 p accepted.
  | Species O :    hydro orbital   3 d accepted.
  | Species O :    hydro orbital   3 d accepted.
  | Species O :    hydro orbital   4 f accepted.
  | Species O :    hydro orbital   5 g accepted.
  | Species Ca :   atomic orbital   1 s accepted.
  | Species Ca :   atomic orbital   2 s accepted.
  | Species Ca :   atomic orbital   3 s accepted.
  | Species Ca :   atomic orbital   4 s accepted.
  | Species Ca :    ionic orbital   4 s accepted.
  | Species Ca :   atomic orbital   2 p accepted.
  | Species Ca :   atomic orbital   3 p accepted.
  | Species Ca :    ionic orbital   4 p accepted.
  | Species Ca :    ionic orbital   3 d accepted.
  | Species Ca :    hydro orbital   3 d accepted.
  | Species Ca :    hydro orbital   4 f accepted.
 
  Basis size parameters after reduction:
  | Total number of radial functions:       51
  | Total number of basis functions :      370
 
  Preparing densities etc. for the partition functions (integrals / Hartree potential).

  Preparations completed.
  max(cpu_time)          :      0.400 s.
  Wall clock time (cpu1) :      0.422 s.
------------------------------------------------------------

------------------------------------------------------------
          Begin self-consistency loop: Initialization.

          Date     :  20161129, Time     :  145710.597
------------------------------------------------------------

  Initializing index lists of integration centers etc. from given atomic structure:
  | Number of centers in hamiltonian partition_tab :        14
  | Number of centers in hartree potential         :        14
  | Number of centers in hartree multipole         :        14
  | Number of centers in electron density summation:        14
  | Number of centers in basis integrals           :        14
  | Number of centers in integrals                 :        14
  Partitioning the integration grid into batches with parallel hashing+maxmin method.
  | Number of batches:     2671
  | Maximal batch size:     198
  | Minimal batch size:      61
  | Average batch size:      89.745
  | Standard deviation of batch sizes:      26.380

  Integration load balanced across     8 MPI tasks.
  Work distribution over tasks is as follows:
  Task     0 has      29916 integration points.
  Task     1 has      29976 integration points.
  Task     2 has      29975 integration points.
  Task     3 has      30005 integration points.
  Task     4 has      30002 integration points.
  Task     5 has      30001 integration points.
  Task     6 has      29917 integration points.
  Task     7 has      29916 integration points.
  Initializing partition tables, free-atom densities, potentials, etc.
  across the integration grid (initialize_grid_storage).
  | Net number of integration points:   239708
  | of which are non-zero points    :   192926
  Obtaining max. number of non-zero basis functions in each batch (get_n_compute_maxes).
  | Maximal number of non-zero basis functions:      369 in task     0
  | Maximal number of non-zero basis functions:      369 in task     1
  | Maximal number of non-zero basis functions:      369 in task     2
  | Maximal number of non-zero basis functions:      368 in task     3
  | Maximal number of non-zero basis functions:      369 in task     4
  | Maximal number of non-zero basis functions:      369 in task     5
  | Maximal number of non-zero basis functions:      369 in task     6
  | Maximal number of non-zero basis functions:      369 in task     7
  For each atomic center, finding distance to closest integration grid point.
  Integrating overlap matrix.
  Integrating Hamiltonian matrix: batch-based integration.

  Updating Kohn-Sham eigenvalues, eigenvectors, occupation numbers, and Fermi level.
  Solving generalized eigenproblem
  Updating Kohn-Sham eigenvalues and eigenfunctions.
  Transforming overlap matrix and checking for singularities.
  Overlap matrix is nonsingular:
  | Lowest eigenvalue:  0.116473E-03
  Solving real generalised eigenvalue problem by standard LAPACK (fast)
  Determining occupation numbers for Kohn-Sham eigenstates.
  | Chemical potential (Fermi level) in eV                 : -.11250005E+02
  | Error in electron count due to remaining E_F inaccuracy: 0.00000000E+00
  | Maximum occupation number of highest empty state:  0.00E+00

  Writing Kohn-Sham eigenvalues.

  State    Occupation    Eigenvalue [Ha]    Eigenvalue [eV]
      1       2.00000        -145.833235        -3968.32423
      2       2.00000         -19.031445         -517.87197
      3       2.00000         -19.024702         -517.68849
      4       2.00000         -15.234985         -414.56504
      5       2.00000         -14.301197         -389.15537
      6       2.00000         -12.305650         -334.85376
      7       2.00000         -12.305504         -334.84981
      8       2.00000         -12.305467         -334.84880
      9       2.00000         -10.179519         -276.99880
     10       2.00000         -10.154542         -276.31913
     11       2.00000         -10.151066         -276.22457
     12       2.00000          -1.732691          -47.14891
     13       2.00000          -1.179005          -32.08237
     14       2.00000          -1.089534          -29.64773
     15       2.00000          -1.034727          -28.15635
     16       2.00000          -1.029554          -28.01558
     17       2.00000          -1.027340          -27.95535
     18       2.00000          -1.024607          -27.88098
     19       2.00000          -0.877277          -23.87192
     20       2.00000          -0.765305          -20.82501
     21       2.00000          -0.661655          -18.00455
     22       2.00000          -0.633082          -17.22704
     23       2.00000          -0.631730          -17.19025
     24       2.00000          -0.607018          -16.51780
     25       2.00000          -0.576153          -15.67793
     26       2.00000          -0.568660          -15.47404
     27       2.00000          -0.549717          -14.95856
     28       2.00000          -0.526346          -14.32261
     29       2.00000          -0.520301          -14.15812
     30       2.00000          -0.492285          -13.39575
     31       2.00000          -0.439866          -11.96936
     32       2.00000          -0.438533          -11.93308
     33       2.00000          -0.434509          -11.82359
     34       0.00000          -0.171915           -4.67805
     35       0.00000          -0.121704           -3.31173
     36       0.00000          -0.087248           -2.37415
     37       0.00000          -0.073568           -2.00190
     38       0.00000          -0.070288           -1.91265
     39       0.00000          -0.069621           -1.89450
     40       0.00000          -0.066095           -1.79854
     41       0.00000          -0.063628           -1.73142
     42       0.00000          -0.055975           -1.52315
     43       0.00000          -0.043433           -1.18187
     44       0.00000          -0.031855           -0.86681
     45       0.00000          -0.029065           -0.79090
     46       0.00000          -0.022779           -0.61984
     47       0.00000          -0.017375           -0.47279
     48       0.00000          -0.005530           -0.15049
     49       0.00000           0.006558            0.17845
     50       0.00000           0.016539            0.45006
     51       0.00000           0.026257            0.71448
     52       0.00000           0.040087            1.09081
     53       0.00000           0.050553            1.37562
     54       0.00000           0.061804            1.68176
     55       0.00000           0.076990            2.09501
     56       0.00000           0.083999            2.28572
     57       0.00000           0.092340            2.51269
     58       0.00000           0.112388            3.05823
     59       0.00000           0.118553            3.22598
     60       0.00000           0.121561            3.30785
     61       0.00000           0.126733            3.44858
     62       0.00000           0.130255            3.54441
     63       0.00000           0.135390            3.68414
     64       0.00000           0.138433            3.76694
     65       0.00000           0.157263            4.27934
     66       0.00000           0.161264            4.38820

  Highest occupied state (VBM) at    -11.82359479 eV
  | Occupation number:      2.00000000

  Lowest unoccupied state (CBM) at    -4.67804933 eV
  | Occupation number:      0.00000000

  Calculating total energy contributions from superposition of free atom densities.

  Total energy components:
  | Sum of eigenvalues            :        -595.33441773 Ha      -16199.87374689 eV
  | XC energy correction          :         -77.92497441 Ha       -2120.44644091 eV
  | XC potential correction       :         100.48807880 Ha        2734.41974989 eV
  | Free-atom electrostatic energy:        -432.99119325 Ha      -11782.28984476 eV
  | Hartree energy correction     :           0.00000000 Ha           0.00000000 eV
  | van der Waals energy corr.    :           0.00000000 Ha           0.00000000 eV
  | Entropy correction            :          -0.00000000 Ha          -0.00000000 eV
  | ---------------------------
  | Total energy                  :       -1005.76250660 Ha      -27368.19028267 eV
  | Total energy, T -> 0          :       -1005.76250660 Ha      -27368.19028267 eV
  | Free energy                   :       -1005.76250660 Ha      -27368.19028267 eV

  Derived energy quantities:
  | Kinetic energy                :        1008.05078579 Ha       27430.45752760 eV
  | Electrostatic energy          :       -1935.88831797 Ha      -52678.20136936 eV
  | Energy correction for multipole
  | error in Hartree potential    :           0.00000000 Ha           0.00000000 eV
  | Sum of eigenvalues per atom                       :       -1157.13383906 eV
  | Total energy (T->0) per atom                      :       -1954.87073448 eV
  | Free energy per atom                              :       -1954.87073448 eV

  End scf initialization - timings             :  max(cpu_time)    wall_clock(cpu1)
  | Time for scf. initialization               :        1.592 s           1.590 s
  | Integration                                :        1.084 s           1.082 s
  | Solution of K.-S. eqns.                    :        0.140 s           0.141 s
  | Grid partitioning                          :        0.116 s           0.114 s
  | Preloading free-atom quantities on grid    :        0.216 s           0.212 s
  | Free-atom superposition energy             :        0.040 s           0.040 s
  | Total energy evaluation                    :        0.000 s           0.000 s
------------------------------------------------------------

------------------------------------------------------------
          Begin self-consistency iteration #    1

  Date     :  20161129, Time     :  145712.187
------------------------------------------------------------
  Evaluating new KS density.
  Pulay mixing of updated and previous charge densities.

  Evaluating partitioned Hartree potential by multipole expansion.
  | Analytical far-field extrapolation by fixed multipoles:
  | Hartree multipole sum: apparent total charge =   0.999970E+00
  Summing up the Hartree potential.
  | RMS charge density error from multipole expansion :   0.657097E-02

  Integrating Hamiltonian matrix: batch-based integration.

  Updating Kohn-Sham eigenvalues, eigenvectors, occupation numbers, and Fermi level.
  Solving generalized eigenproblem
  Updating Kohn-Sham eigenvalues and eigenfunctions.
  Solving real generalised eigenvalue problem by standard LAPACK (fast)
  Determining occupation numbers for Kohn-Sham eigenstates.
  | Chemical potential (Fermi level) in eV                 : -.94019332E+01
  | Error in electron count due to remaining E_F inaccuracy: 0.00000000E+00
  | Maximum occupation number of highest empty state:  0.00E+00

  Writing Kohn-Sham eigenvalues.

  State    Occupation    Eigenvalue [Ha]    Eigenvalue [eV]
      1       2.00000        -146.026750        -3973.59005
      2       2.00000         -18.848872         -512.90392
      3       2.00000         -18.826750         -512.30194
      4       2.00000         -15.423337         -419.69036
      5       2.00000         -14.242729         -387.56438
      6       2.00000         -12.494767         -339.99990
      7       2.00000         -12.494365         -339.98897
      8       2.00000         -12.494048         -339.98036
      9       2.00000         -10.260212         -279.19458
     10       2.00000         -10.151189         -276.22792
     11       2.00000          -9.981157         -271.60109
     12       2.00000          -1.912287          -52.03599
     13       2.00000          -1.228760          -33.43626
     14       2.00000          -1.212004          -32.98031
     15       2.00000          -1.211393          -32.96369
     16       2.00000          -1.151567          -31.33573
     17       2.00000          -1.086018          -29.55205
     18       2.00000          -1.058547          -28.80452
     19       2.00000          -0.888543          -24.17850
     20       2.00000          -0.777082          -21.14548
     21       2.00000          -0.712369          -19.38455
     22       2.00000          -0.688154          -18.72564
     23       2.00000          -0.665888          -18.11973
     24       2.00000          -0.624380          -16.99025
     25       2.00000          -0.598317          -16.28105
     26       2.00000          -0.576188          -15.67887
     27       2.00000          -0.561048          -15.26689
     28       2.00000          -0.518198          -14.10090
     29       2.00000          -0.506469          -13.78173
     30       2.00000          -0.500440          -13.61765
     31       2.00000          -0.437357          -11.90109
     32       2.00000          -0.418465          -11.38700
     33       2.00000          -0.408967          -11.12856
     34       0.00000          -0.264241           -7.19038
     35       0.00000          -0.247396           -6.73199
     36       0.00000          -0.235339           -6.40389
     37       0.00000          -0.234867           -6.39105
     38       0.00000          -0.223487           -6.08140
     39       0.00000          -0.212672           -5.78710
     40       0.00000          -0.210188           -5.71951
     41       0.00000          -0.183751           -5.00012
     42       0.00000          -0.157130           -4.27572
     43       0.00000          -0.138740           -3.77531
     44       0.00000          -0.133469           -3.63189
     45       0.00000          -0.126079           -3.43079
     46       0.00000          -0.118525           -3.22524
     47       0.00000          -0.098039           -2.66777
     48       0.00000          -0.088788           -2.41605
     49       0.00000          -0.076874           -2.09185
     50       0.00000          -0.055301           -1.50481
     51       0.00000          -0.048406           -1.31720
     52       0.00000          -0.041756           -1.13624
     53       0.00000          -0.036477           -0.99259
     54       0.00000          -0.022414           -0.60991
     55       0.00000          -0.010775           -0.29319
     56       0.00000          -0.005854           -0.15930
     57       0.00000          -0.002428           -0.06606
     58       0.00000           0.007042            0.19161
     59       0.00000           0.007469            0.20325
     60       0.00000           0.012449            0.33875
     61       0.00000           0.017157            0.46686
     62       0.00000           0.028328            0.77083
     63       0.00000           0.046893            1.27604
     64       0.00000           0.050590            1.37663
     65       0.00000           0.063830            1.73691
     66       0.00000           0.069638            1.89494

  Highest occupied state (VBM) at    -11.12856246 eV
  | Occupation number:      2.00000000

  Lowest unoccupied state (CBM) at    -7.19037586 eV
  | Occupation number:      0.00000000


  Total energy components:
  | Sum of eigenvalues            :        -597.97324032 Ha      -16271.67976312 eV
  | XC energy correction          :         -78.52624969 Ha       -2136.80797369 eV
  | XC potential correction       :         101.26689131 Ha        2755.61231666 eV
  | Free-atom electrostatic energy:        -432.99119325 Ha      -11782.28984476 eV
  | Hartree energy correction     :           2.84476741 Ha          77.41005982 eV
  | van der Waals energy corr.    :           0.00000000 Ha           0.00000000 eV
  | Entropy correction            :           0.00000000 Ha           0.00000000 eV
  | ---------------------------
  | Total energy                  :       -1005.37902454 Ha      -27357.75520508 eV
  | Total energy, T -> 0          :       -1005.37902454 Ha      -27357.75520508 eV
  | Free energy                   :       -1005.37902454 Ha      -27357.75520508 eV

  Derived energy quantities:
  | Kinetic energy                :        1011.37361253 Ha       27520.87624359 eV
  | Electrostatic energy          :       -1938.22638738 Ha      -52741.82347497 eV
  | Energy correction for multipole
  | error in Hartree potential    :          -0.01564566 Ha          -0.42574010 eV
  | Sum of eigenvalues per atom                       :       -1162.26284022 eV
  | Total energy (T->0) per atom                      :       -1954.12537179 eV
  | Free energy per atom                              :       -1954.12537179 eV

  Self-consistency convergence accuracy:
  | Change of charge density      : 0.5820E+00
  | Change of sum of eigenvalues  : -.7181E+02 eV
  | Change of total energy        : 0.1044E+02 eV

  End self-consistency iteration #     1       :  max(cpu_time)    wall_clock(cpu1)
  | Time for this iteration                    :        1.504 s           1.501 s
  | Charge density update                      :        0.464 s           0.464 s
  | Density mixing                             :        0.004 s           0.002 s
  | Hartree multipole update                   :        0.012 s           0.013 s
  | Hartree multipole summation                :        0.280 s           0.279 s
  | Integration                                :        0.708 s           0.709 s
  | Solution of K.-S. eqns.                    :        0.036 s           0.034 s
  | Total energy evaluation                    :        0.000 s           0.000 s
------------------------------------------------------------

------------------------------------------------------------
          Begin self-consistency iteration #    2

  Date     :  20161129, Time     :  145713.688
------------------------------------------------------------
  Evaluating new KS density.
  Pulay mixing of updated and previous charge densities.

  Evaluating partitioned Hartree potential by multipole expansion.
  | Analytical far-field extrapolation by fixed multipoles:
  | Hartree multipole sum: apparent total charge =   0.136894E+01
  Summing up the Hartree potential.
  | RMS charge density error from multipole expansion :   0.854690E-02

  Integrating Hamiltonian matrix: batch-based integration.

  Updating Kohn-Sham eigenvalues, eigenvectors, occupation numbers, and Fermi level.
  Solving generalized eigenproblem
  Updating Kohn-Sham eigenvalues and eigenfunctions.
  Solving real generalised eigenvalue problem by standard LAPACK (fast)
  Determining occupation numbers for Kohn-Sham eigenstates.
  | Chemical potential (Fermi level) in eV                 : -.11800987E+02
  | Error in electron count due to remaining E_F inaccuracy: 0.00000000E+00
  | Maximum occupation number of highest empty state:  0.00E+00

  Highest occupied state (VBM) at    -13.78198191 eV
  | Occupation number:      2.00000000

  Lowest unoccupied state (CBM) at    -8.45607159 eV
  | Occupation number:      0.00000000


  Total energy components:
  | Sum of eigenvalues            :        -602.24539670 Ha      -16387.93105284 eV
  | XC energy correction          :         -78.38661993 Ha       -2133.00845445 eV
  | XC potential correction       :         101.08258146 Ha        2750.59699032 eV
  | Free-atom electrostatic energy:        -432.99119325 Ha      -11782.28984476 eV
  | Hartree energy correction     :           7.22660683 Ha         196.64597695 eV
  | van der Waals energy corr.    :           0.00000000 Ha           0.00000000 eV
  | Entropy correction            :           0.00000000 Ha           0.00000000 eV
  | ---------------------------
  | Total energy                  :       -1005.31402159 Ha      -27355.98638478 eV
  | Total energy, T -> 0          :       -1005.31402159 Ha      -27355.98638478 eV
  | Free energy                   :       -1005.31402159 Ha      -27355.98638478 eV

  Derived energy quantities:
  | Kinetic energy                :        1009.90432772 Ha       27480.89496978 eV
  | Electrostatic energy          :       -1936.83172939 Ha      -52703.87290011 eV
  | Energy correction for multipole
  | error in Hartree potential    :          -0.01926844 Ha          -0.52432083 eV
  | Sum of eigenvalues per atom                       :       -1170.56650377 eV
  | Total energy (T->0) per atom                      :       -1953.99902748 eV
  | Free energy per atom                              :       -1953.99902748 eV

  Self-consistency convergence accuracy:
  | Change of charge density      : 0.3310E+00
  | Change of sum of eigenvalues  : -.1163E+03 eV
  | Change of total energy        : 0.1769E+01 eV

  End self-consistency iteration #     2       :  max(cpu_time)    wall_clock(cpu1)
  | Time for this iteration                    :        1.472 s           1.469 s
  | Charge density update                      :        0.460 s           0.458 s
  | Density mixing                             :        0.004 s           0.004 s
  | Hartree multipole update                   :        0.012 s           0.010 s
  | Hartree multipole summation                :        0.280 s           0.277 s
  | Integration                                :        0.688 s           0.686 s
  | Solution of K.-S. eqns.                    :        0.036 s           0.033 s
  | Total energy evaluation                    :        0.000 s           0.000 s
------------------------------------------------------------

------------------------------------------------------------
          Begin self-consistency iteration #    3

  Date     :  20161129, Time     :  145715.157
------------------------------------------------------------
  Evaluating new KS density.
  Pulay mixing of updated and previous charge densities.

  Evaluating partitioned Hartree potential by multipole expansion.
  | Analytical far-field extrapolation by fixed multipoles:
  | Hartree multipole sum: apparent total charge =   0.184843E+01
  Summing up the Hartree potential.
  | RMS charge density error from multipole expansion :   0.112642E-01

  Integrating Hamiltonian matrix: batch-based integration.

  Updating Kohn-Sham eigenvalues, eigenvectors, occupation numbers, and Fermi level.
  Solving generalized eigenproblem
  Updating Kohn-Sham eigenvalues and eigenfunctions.
  Solving real generalised eigenvalue problem by standard LAPACK (fast)
  Determining occupation numbers for Kohn-Sham eigenstates.
  | Chemical potential (Fermi level) in eV                 : -.13273585E+02
  | Error in electron count due to remaining E_F inaccuracy: 0.00000000E+00
  | Maximum occupation number of highest empty state:  0.00E+00

  Highest occupied state (VBM) at    -14.89620486 eV
  | Occupation number:      2.00000000

  Lowest unoccupied state (CBM) at   -10.17540014 eV
  | Occupation number:      0.00000000


  Total energy components:
  | Sum of eigenvalues            :        -606.34507007 Ha      -16499.48884140 eV
  | XC energy correction          :         -78.43204691 Ha       -2134.24458556 eV
  | XC potential correction       :         101.14092301 Ha        2752.18454479 eV
  | Free-atom electrostatic energy:        -432.99119325 Ha      -11782.28984476 eV
  | Hartree energy correction     :          11.33774088 Ha         308.51562639 eV
  | van der Waals energy corr.    :           0.00000000 Ha           0.00000000 eV
  | Entropy correction            :           0.00000000 Ha           0.00000000 eV
  | ---------------------------
  | Total energy                  :       -1005.28964634 Ha      -27355.32310053 eV
  | Total energy, T -> 0          :       -1005.28964634 Ha      -27355.32310053 eV
  | Free energy                   :       -1005.28964634 Ha      -27355.32310053 eV

  Derived energy quantities:
  | Kinetic energy                :        1009.29822276 Ha       27464.40201478 eV
  | Electrostatic energy          :       -1936.15582220 Ha      -52685.48052975 eV
  | Energy correction for multipole
  | error in Hartree potential    :          -0.02461761 Ha          -0.66987932 eV
  | Sum of eigenvalues per atom                       :       -1178.53491724 eV
  | Total energy (T->0) per atom                      :       -1953.95165004 eV
  | Free energy per atom                              :       -1953.95165004 eV

  Self-consistency convergence accuracy:
  | Change of charge density      : 0.1288E+00
  | Change of sum of eigenvalues  : -.1116E+03 eV
  | Change of total energy        : 0.6633E+00 eV

  End self-consistency iteration #     3       :  max(cpu_time)    wall_clock(cpu1)
  | Time for this iteration                    :        1.468 s           1.465 s
  | Charge density update                      :        0.456 s           0.455 s
  | Density mixing                             :        0.008 s           0.006 s
  | Hartree multipole update                   :        0.012 s           0.009 s
  | Hartree multipole summation                :        0.276 s           0.276 s
  | Integration                                :        0.688 s           0.686 s
  | Solution of K.-S. eqns.                    :        0.036 s           0.033 s
  | Total energy evaluation                    :        0.000 s           0.000 s
------------------------------------------------------------

------------------------------------------------------------
          Begin self-consistency iteration #    4

  Date     :  20161129, Time     :  145716.622
------------------------------------------------------------
  Evaluating new KS density.
  Pulay mixing of updated and previous charge densities.

  Evaluating partitioned Hartree potential by multipole expansion.
  | Analytical far-field extrapolation by fixed multipoles:
  | Hartree multipole sum: apparent total charge =   0.195769E+01
  Summing up the Hartree potential.
  | RMS charge density error from multipole expansion :   0.118227E-01

  Integrating Hamiltonian matrix: batch-based integration.

  Updating Kohn-Sham eigenvalues, eigenvectors, occupation numbers, and Fermi level.
  Solving generalized eigenproblem
  Updating Kohn-Sham eigenvalues and eigenfunctions.
  Solving real generalised eigenvalue problem by standard LAPACK (fast)
  Determining occupation numbers for Kohn-Sham eigenstates.
  | Chemical potential (Fermi level) in eV                 : -.13515143E+02
  | Error in electron count due to remaining E_F inaccuracy: 0.00000000E+00
  | Maximum occupation number of highest empty state:  0.00E+00

  Highest occupied state (VBM) at    -15.49099688 eV
  | Occupation number:      2.00000000

  Lowest unoccupied state (CBM) at   -10.51261795 eV
  | Occupation number:      0.00000000


  Total energy components:
  | Sum of eigenvalues            :        -607.19654462 Ha      -16522.65864268 eV
  | XC energy correction          :         -78.43313535 Ha       -2134.27420358 eV
  | XC potential correction       :         101.14275143 Ha        2752.23429847 eV
  | Free-atom electrostatic energy:        -432.99119325 Ha      -11782.28984476 eV
  | Hartree energy correction     :          12.19077799 Ha         331.72794732 eV
  | van der Waals energy corr.    :           0.00000000 Ha           0.00000000 eV
  | Entropy correction            :           0.00000000 Ha           0.00000000 eV
  | ---------------------------
  | Total energy                  :       -1005.28734380 Ha      -27355.26044522 eV
  | Total energy, T -> 0          :       -1005.28734380 Ha      -27355.26044522 eV
  | Free energy                   :       -1005.28734380 Ha      -27355.26044522 eV

  Derived energy quantities:
  | Kinetic energy                :        1009.11643490 Ha       27459.45531544 eV
  | Electrostatic energy          :       -1935.97064336 Ha      -52680.44155709 eV
  | Energy correction for multipole
  | error in Hartree potential    :          -0.02578116 Ha          -0.70154112 eV
  | Sum of eigenvalues per atom                       :       -1180.18990305 eV
  | Total energy (T->0) per atom                      :       -1953.94717466 eV
  | Free energy per atom                              :       -1953.94717466 eV

  Self-consistency convergence accuracy:
  | Change of charge density      : 0.5750E-01
  | Change of sum of eigenvalues  : -.2317E+02 eV
  | Change of total energy        : 0.6266E-01 eV

  End self-consistency iteration #     4       :  max(cpu_time)    wall_clock(cpu1)
  | Time for this iteration                    :        1.472 s           1.470 s
  | Charge density update                      :        0.456 s           0.455 s
  | Density mixing                             :        0.008 s           0.007 s
  | Hartree multipole update                   :        0.012 s           0.009 s
  | Hartree multipole summation                :        0.280 s           0.277 s
  | Integration                                :        0.688 s           0.689 s
  | Solution of K.-S. eqns.                    :        0.036 s           0.033 s
  | Total energy evaluation                    :        0.000 s           0.000 s
------------------------------------------------------------

------------------------------------------------------------
          Begin self-consistency iteration #    5

  Date     :  20161129, Time     :  145718.092
------------------------------------------------------------
  Evaluating new KS density.
  Pulay mixing of updated and previous charge densities.

  Evaluating partitioned Hartree potential by multipole expansion.
  | Analytical far-field extrapolation by fixed multipoles:
  | Hartree multipole sum: apparent total charge =   0.197600E+01
  Summing up the Hartree potential.
  | RMS charge density error from multipole expansion :   0.118895E-01

  Integrating Hamiltonian matrix: batch-based integration.

  Updating Kohn-Sham eigenvalues, eigenvectors, occupation numbers, and Fermi level.
  Solving generalized eigenproblem
  Updating Kohn-Sham eigenvalues and eigenfunctions.
  Solving real generalised eigenvalue problem by standard LAPACK (fast)
  Determining occupation numbers for Kohn-Sham eigenstates.
  | Chemical potential (Fermi level) in eV                 : -.13556048E+02
  | Error in electron count due to remaining E_F inaccuracy: 0.00000000E+00
  | Maximum occupation number of highest empty state:  0.00E+00

  Highest occupied state (VBM) at    -15.55245901 eV
  | Occupation number:      2.00000000

  Lowest unoccupied state (CBM) at   -10.54732887 eV
  | Occupation number:      0.00000000


  Total energy components:
  | Sum of eigenvalues            :        -607.35535923 Ha      -16526.98020806 eV
  | XC energy correction          :         -78.42982070 Ha       -2134.18400738 eV
  | XC potential correction       :         101.13855192 Ha        2752.12002393 eV
  | Free-atom electrostatic energy:        -432.99119325 Ha      -11782.28984476 eV
  | Hartree energy correction     :          12.35068658 Ha         336.07928131 eV
  | van der Waals energy corr.    :           0.00000000 Ha           0.00000000 eV
  | Entropy correction            :           0.00000000 Ha           0.00000000 eV
  | ---------------------------
  | Total energy                  :       -1005.28713469 Ha      -27355.25475495 eV
  | Total energy, T -> 0          :       -1005.28713469 Ha      -27355.25475495 eV
  | Free energy                   :       -1005.28713469 Ha      -27355.25475495 eV

  Derived energy quantities:
  | Kinetic energy                :        1009.08034450 Ha       27458.47324570 eV
  | Electrostatic energy          :       -1935.93765849 Ha      -52679.54399328 eV
  | Energy correction for multipole
  | error in Hartree potential    :          -0.02590737 Ha          -0.70497538 eV
  | Sum of eigenvalues per atom                       :       -1180.49858629 eV
  | Total energy (T->0) per atom                      :       -1953.94676821 eV
  | Free energy per atom                              :       -1953.94676821 eV

  Self-consistency convergence accuracy:
  | Change of charge density      : 0.2033E-01
  | Change of sum of eigenvalues  : -.4322E+01 eV
  | Change of total energy        : 0.5690E-02 eV

  End self-consistency iteration #     5       :  max(cpu_time)    wall_clock(cpu1)
  | Time for this iteration                    :        1.468 s           1.468 s
  | Charge density update                      :        0.456 s           0.454 s
  | Density mixing                             :        0.008 s           0.008 s
  | Hartree multipole update                   :        0.012 s           0.010 s
  | Hartree multipole summation                :        0.276 s           0.276 s
  | Integration                                :        0.688 s           0.687 s
  | Solution of K.-S. eqns.                    :        0.036 s           0.033 s
  | Total energy evaluation                    :        0.000 s           0.000 s
------------------------------------------------------------

------------------------------------------------------------
          Begin self-consistency iteration #    6

  Date     :  20161129, Time     :  145719.560
------------------------------------------------------------
  Evaluating new KS density.
  Pulay mixing of updated and previous charge densities.

  Evaluating partitioned Hartree potential by multipole expansion.
  | Analytical far-field extrapolation by fixed multipoles:
  | Hartree multipole sum: apparent total charge =   0.199218E+01
  Summing up the Hartree potential.
  | RMS charge density error from multipole expansion :   0.119438E-01

  Integrating Hamiltonian matrix: batch-based integration.

  Updating Kohn-Sham eigenvalues, eigenvectors, occupation numbers, and Fermi level.
  Solving generalized eigenproblem
  Updating Kohn-Sham eigenvalues and eigenfunctions.
  Solving real generalised eigenvalue problem by standard LAPACK (fast)
  Determining occupation numbers for Kohn-Sham eigenstates.
  | Chemical potential (Fermi level) in eV                 : -.13591170E+02
  | Error in electron count due to remaining E_F inaccuracy: 0.00000000E+00
  | Maximum occupation number of highest empty state:  0.00E+00

  Highest occupied state (VBM) at    -15.61130627 eV
  | Occupation number:      2.00000000

  Lowest unoccupied state (CBM) at   -10.56940778 eV
  | Occupation number:      0.00000000


  Total energy components:
  | Sum of eigenvalues            :        -607.49780211 Ha      -16530.85627601 eV
  | XC energy correction          :         -78.42791046 Ha       -2134.13202704 eV
  | XC potential correction       :         101.13616391 Ha        2752.05504290 eV
  | Free-atom electrostatic energy:        -432.99119325 Ha      -11782.28984476 eV
  | Hartree energy correction     :          12.49363231 Ha         339.96903247 eV
  | van der Waals energy corr.    :           0.00000000 Ha           0.00000000 eV
  | Entropy correction            :           0.00000000 Ha           0.00000000 eV
  | ---------------------------
  | Total energy                  :       -1005.28710961 Ha      -27355.25407244 eV
  | Total energy, T -> 0          :       -1005.28710961 Ha      -27355.25407244 eV
  | Free energy                   :       -1005.28710961 Ha      -27355.25407244 eV

  Derived energy quantities:
  | Kinetic energy                :        1009.06031028 Ha       27457.92808671 eV
  | Electrostatic energy          :       -1935.91950943 Ha      -52679.05013211 eV
  | Energy correction for multipole
  | error in Hartree potential    :          -0.02599734 Ha          -0.70742350 eV
  | Sum of eigenvalues per atom                       :       -1180.77544829 eV
  | Total energy (T->0) per atom                      :       -1953.94671946 eV
  | Free energy per atom                              :       -1953.94671946 eV

  Self-consistency convergence accuracy:
  | Change of charge density      : 0.6575E-02
  | Change of sum of eigenvalues  : -.3876E+01 eV
  | Change of total energy        : 0.6825E-03 eV

  End self-consistency iteration #     6       :  max(cpu_time)    wall_clock(cpu1)
  | Time for this iteration                    :        1.472 s           1.470 s
  | Charge density update                      :        0.456 s           0.454 s
  | Density mixing                             :        0.008 s           0.009 s
  | Hartree multipole update                   :        0.012 s           0.009 s
  | Hartree multipole summation                :        0.280 s           0.278 s
  | Integration                                :        0.688 s           0.687 s
  | Solution of K.-S. eqns.                    :        0.036 s           0.033 s
  | Total energy evaluation                    :        0.004 s           0.000 s
------------------------------------------------------------

------------------------------------------------------------
          Begin self-consistency iteration #    7

  Date     :  20161129, Time     :  145721.030
------------------------------------------------------------
  Evaluating new KS density.
  Pulay mixing of updated and previous charge densities.

  Evaluating partitioned Hartree potential by multipole expansion.
  | Analytical far-field extrapolation by fixed multipoles:
  | Hartree multipole sum: apparent total charge =   0.199806E+01
  Summing up the Hartree potential.
  | RMS charge density error from multipole expansion :   0.119654E-01

  Integrating Hamiltonian matrix: batch-based integration.

  Updating Kohn-Sham eigenvalues, eigenvectors, occupation numbers, and Fermi level.
  Solving generalized eigenproblem
  Updating Kohn-Sham eigenvalues and eigenfunctions.
  Solving real generalised eigenvalue problem by standard LAPACK (fast)
  Determining occupation numbers for Kohn-Sham eigenstates.
  | Chemical potential (Fermi level) in eV                 : -.13597693E+02
  | Error in electron count due to remaining E_F inaccuracy: 0.00000000E+00
  | Maximum occupation number of highest empty state:  0.00E+00

  Highest occupied state (VBM) at    -15.62891695 eV
  | Occupation number:      2.00000000

  Lowest unoccupied state (CBM) at   -10.57819838 eV
  | Occupation number:      0.00000000


  Total energy components:
  | Sum of eigenvalues            :        -607.54371066 Ha      -16532.10551122 eV
  | XC energy correction          :         -78.42838533 Ha       -2134.14494893 eV
  | XC potential correction       :         101.13682178 Ha        2752.07294452 eV
  | Free-atom electrostatic energy:        -432.99119325 Ha      -11782.28984476 eV
  | Hartree energy correction     :          12.53935747 Ha         341.21327743 eV
  | van der Waals energy corr.    :           0.00000000 Ha           0.00000000 eV
  | Entropy correction            :           0.00000000 Ha           0.00000000 eV
  | ---------------------------
  | Total energy                  :       -1005.28710999 Ha      -27355.25408296 eV
  | Total energy, T -> 0          :       -1005.28710999 Ha      -27355.25408296 eV
  | Free energy                   :       -1005.28710999 Ha      -27355.25408296 eV

  Derived energy quantities:
  | Kinetic energy                :        1009.05978227 Ha       27457.91371887 eV
  | Electrostatic energy          :       -1935.91850694 Ha      -52679.02285290 eV
  | Energy correction for multipole
  | error in Hartree potential    :          -0.02604096 Ha          -0.70861047 eV
  | Sum of eigenvalues per atom                       :       -1180.86467937 eV
  | Total energy (T->0) per atom                      :       -1953.94672021 eV
  | Free energy per atom                              :       -1953.94672021 eV

  Self-consistency convergence accuracy:
  | Change of charge density      : 0.1303E-02
  | Change of sum of eigenvalues  : -.1249E+01 eV
  | Change of total energy        : -.1052E-04 eV

  End self-consistency iteration #     7       :  max(cpu_time)    wall_clock(cpu1)
  | Time for this iteration                    :        1.472 s           1.471 s
  | Charge density update                      :        0.456 s           0.454 s
  | Density mixing                             :        0.012 s           0.009 s
  | Hartree multipole update                   :        0.012 s           0.009 s
  | Hartree multipole summation                :        0.280 s           0.279 s
  | Integration                                :        0.688 s           0.687 s
  | Solution of K.-S. eqns.                    :        0.036 s           0.033 s
  | Total energy evaluation                    :        0.000 s           0.000 s
------------------------------------------------------------

------------------------------------------------------------
          Begin self-consistency iteration #    8

  Date     :  20161129, Time     :  145722.501
------------------------------------------------------------
  Evaluating new KS density.
  Pulay mixing of updated and previous charge densities.

  Evaluating partitioned Hartree potential by multipole expansion.
  | Analytical far-field extrapolation by fixed multipoles:
  | Hartree multipole sum: apparent total charge =   0.199979E+01
  Summing up the Hartree potential.
  | RMS charge density error from multipole expansion :   0.119708E-01

  Integrating Hamiltonian matrix: batch-based integration.

  Updating Kohn-Sham eigenvalues, eigenvectors, occupation numbers, and Fermi level.
  Solving generalized eigenproblem
  Updating Kohn-Sham eigenvalues and eigenfunctions.
  Solving real generalised eigenvalue problem by standard LAPACK (fast)
  Determining occupation numbers for Kohn-Sham eigenstates.
  | Chemical potential (Fermi level) in eV                 : -.13598244E+02
  | Error in electron count due to remaining E_F inaccuracy: 0.00000000E+00
  | Maximum occupation number of highest empty state:  0.00E+00

  Highest occupied state (VBM) at    -15.63443178 eV
  | Occupation number:      2.00000000

  Lowest unoccupied state (CBM) at   -10.57947101 eV
  | Occupation number:      0.00000000


  Total energy components:
  | Sum of eigenvalues            :        -607.55825229 Ha      -16532.50120935 eV
  | XC energy correction          :         -78.42838187 Ha       -2134.14485484 eV
  | XC potential correction       :         101.13683120 Ha        2752.07320083 eV
  | Free-atom electrostatic energy:        -432.99119325 Ha      -11782.28984476 eV
  | Hartree energy correction     :          12.55388597 Ha         341.60861819 eV
  | van der Waals energy corr.    :           0.00000000 Ha           0.00000000 eV
  | Entropy correction            :           0.00000000 Ha           0.00000000 eV
  | ---------------------------
  | Total energy                  :       -1005.28711025 Ha      -27355.25408992 eV
  | Total energy, T -> 0          :       -1005.28711025 Ha      -27355.25408992 eV
  | Free energy                   :       -1005.28711025 Ha      -27355.25408992 eV

  Derived energy quantities:
  | Kinetic energy                :        1009.05946831 Ha       27457.90517550 eV
  | Electrostatic energy          :       -1935.91819669 Ha      -52679.01441058 eV
  | Energy correction for multipole
  | error in Hartree potential    :          -0.02605026 Ha          -0.70886370 eV
  | Sum of eigenvalues per atom                       :       -1180.89294352 eV
  | Total energy (T->0) per atom                      :       -1953.94672071 eV
  | Free energy per atom                              :       -1953.94672071 eV

  Self-consistency convergence accuracy:
  | Change of charge density      : 0.3917E-03
  | Change of sum of eigenvalues  : -.3957E+00 eV
  | Change of total energy        : -.6954E-05 eV

  End self-consistency iteration #     8       :  max(cpu_time)    wall_clock(cpu1)
  | Time for this iteration                    :        1.468 s           1.468 s
  | Charge density update                      :        0.456 s           0.454 s
  | Density mixing                             :        0.012 s           0.010 s
  | Hartree multipole update                   :        0.012 s           0.009 s
  | Hartree multipole summation                :        0.276 s           0.276 s
  | Integration                                :        0.688 s           0.686 s
  | Solution of K.-S. eqns.                    :        0.036 s           0.033 s
  | Total energy evaluation                    :        0.000 s           0.000 s
------------------------------------------------------------

------------------------------------------------------------
          Begin self-consistency iteration #    9

  Date     :  20161129, Time     :  145723.969
------------------------------------------------------------
  Evaluating new KS density.
  Pulay mixing of updated and previous charge densities.

  Evaluating partitioned Hartree potential by multipole expansion.
  | Analytical far-field extrapolation by fixed multipoles:
  | Hartree multipole sum: apparent total charge =   0.199991E+01
  Summing up the Hartree potential.
  | RMS charge density error from multipole expansion :   0.119712E-01

  Integrating Hamiltonian matrix: batch-based integration.

  Updating Kohn-Sham eigenvalues, eigenvectors, occupation numbers, and Fermi level.
  Solving generalized eigenproblem
  Updating Kohn-Sham eigenvalues and eigenfunctions.
  Solving real generalised eigenvalue problem by standard LAPACK (fast)
  Determining occupation numbers for Kohn-Sham eigenstates.
  | Chemical potential (Fermi level) in eV                 : -.13598020E+02
  | Error in electron count due to remaining E_F inaccuracy: 0.00000000E+00
  | Maximum occupation number of highest empty state:  0.00E+00

  Highest occupied state (VBM) at    -15.63512027 eV
  | Occupation number:      2.00000000

  Lowest unoccupied state (CBM) at   -10.57926339 eV
  | Occupation number:      0.00000000


  Total energy components:
  | Sum of eigenvalues            :        -607.55927907 Ha      -16532.52914936 eV
  | XC energy correction          :         -78.42837635 Ha       -2134.14470454 eV
  | XC potential correction       :         101.13682641 Ha        2752.07307057 eV
  | Free-atom electrostatic energy:        -432.99119325 Ha      -11782.28984476 eV
  | Hartree energy correction     :          12.55491200 Ha         341.63653777 eV
  | van der Waals energy corr.    :           0.00000000 Ha           0.00000000 eV
  | Entropy correction            :           0.00000000 Ha           0.00000000 eV
  | ---------------------------
  | Total energy                  :       -1005.28711027 Ha      -27355.25409032 eV
  | Total energy, T -> 0          :       -1005.28711027 Ha      -27355.25409032 eV
  | Free energy                   :       -1005.28711027 Ha      -27355.25409032 eV

  Derived energy quantities:
  | Kinetic energy                :        1009.05959082 Ha       27457.90850925 eV
  | Electrostatic energy          :       -1935.91832474 Ha      -52679.01789503 eV
  | Energy correction for multipole
  | error in Hartree potential    :          -0.02605040 Ha          -0.70886755 eV
  | Sum of eigenvalues per atom                       :       -1180.89493924 eV
  | Total energy (T->0) per atom                      :       -1953.94672074 eV
  | Free energy per atom                              :       -1953.94672074 eV

  Self-consistency convergence accuracy:
  | Change of charge density      : 0.1145E-03
  | Change of sum of eigenvalues  : -.2794E-01 eV
  | Change of total energy        : -.4007E-06 eV

  End self-consistency iteration #     9       :  max(cpu_time)    wall_clock(cpu1)
  | Time for this iteration                    :        1.476 s           1.473 s
  | Charge density update                      :        0.456 s           0.454 s
  | Density mixing                             :        0.012 s           0.011 s
  | Hartree multipole update                   :        0.012 s           0.009 s
  | Hartree multipole summation                :        0.276 s           0.276 s
  | Integration                                :        0.692 s           0.689 s
  | Solution of K.-S. eqns.                    :        0.036 s           0.033 s
  | Total energy evaluation                    :        0.000 s           0.001 s
------------------------------------------------------------

------------------------------------------------------------
          Begin self-consistency iteration #   10

  Date     :  20161129, Time     :  145725.442
------------------------------------------------------------
  Evaluating new KS density.
  Pulay mixing of updated and previous charge densities.

  Evaluating partitioned Hartree potential by multipole expansion.
  | Analytical far-field extrapolation by fixed multipoles:
  | Hartree multipole sum: apparent total charge =   0.199994E+01
  Summing up the Hartree potential.
  | RMS charge density error from multipole expansion :   0.119714E-01

  Integrating Hamiltonian matrix: batch-based integration.

  Updating Kohn-Sham eigenvalues, eigenvectors, occupation numbers, and Fermi level.
  Solving generalized eigenproblem
  Updating Kohn-Sham eigenvalues and eigenfunctions.
  Solving real generalised eigenvalue problem by standard LAPACK (fast)
  Determining occupation numbers for Kohn-Sham eigenstates.
  | Chemical potential (Fermi level) in eV                 : -.13597871E+02
  | Error in electron count due to remaining E_F inaccuracy: 0.00000000E+00
  | Maximum occupation number of highest empty state:  0.00E+00

  Highest occupied state (VBM) at    -15.63510880 eV
  | Occupation number:      2.00000000

  Lowest unoccupied state (CBM) at   -10.57915535 eV
  | Occupation number:      0.00000000


  Total energy components:
  | Sum of eigenvalues            :        -607.55924153 Ha      -16532.52812769 eV
  | XC energy correction          :         -78.42839843 Ha       -2134.14530531 eV
  | XC potential correction       :         101.13685609 Ha        2752.07387826 eV
  | Free-atom electrostatic energy:        -432.99119325 Ha      -11782.28984476 eV
  | Hartree energy correction     :          12.55486685 Ha         341.63530925 eV
  | van der Waals energy corr.    :           0.00000000 Ha           0.00000000 eV
  | Entropy correction            :           0.00000000 Ha           0.00000000 eV
  | ---------------------------
  | Total energy                  :       -1005.28711026 Ha      -27355.25409025 eV
  | Total energy, T -> 0          :       -1005.28711026 Ha      -27355.25409025 eV
  | Free energy                   :       -1005.28711026 Ha      -27355.25409025 eV

  Derived energy quantities:
  | Kinetic energy                :        1009.05969106 Ha       27457.91123684 eV
  | Electrostatic energy          :       -1935.91840289 Ha      -52679.02002179 eV
  | Energy correction for multipole
  | error in Hartree potential    :          -0.02605068 Ha          -0.70887500 eV
  | Sum of eigenvalues per atom                       :       -1180.89486626 eV
  | Total energy (T->0) per atom                      :       -1953.94672073 eV
  | Free energy per atom                              :       -1953.94672073 eV

  Self-consistency convergence accuracy:
  | Change of charge density      : 0.2536E-04
  | Change of sum of eigenvalues  : 0.1022E-02 eV
  | Change of total energy        : 0.6602E-07 eV

  Electronic self-consistency reached - switching on the force computation.

  End self-consistency iteration #    10       :  max(cpu_time)    wall_clock(cpu1)
  | Time for this iteration                    :        1.476 s           1.473 s
  | Charge density & force component update    :        0.456 s           0.455 s
  | Density mixing                             :        0.012 s           0.012 s
  | Hartree multipole update                   :        0.012 s           0.011 s
  | Hartree multipole summation                :        0.276 s           0.276 s
  | Integration                                :        0.688 s           0.686 s
  | Solution of K.-S. eqns.                    :        0.036 s           0.033 s
  | Total energy evaluation                    :        0.000 s           0.000 s
------------------------------------------------------------

------------------------------------------------------------
          Begin self-consistency iteration #   11

  Date     :  20161129, Time     :  145726.915
------------------------------------------------------------
  Evaluating new KS density.
  Pulay mixing of updated and previous charge densities.

  Evaluating partitioned Hartree potential by multipole expansion.
  | Analytical far-field extrapolation by fixed multipoles:
  | Hartree multipole sum: apparent total charge =   0.199995E+01
  Summing up the Hartree potential.
  | RMS charge density error from multipole expansion :   0.119715E-01

[...]
  Performing Hirshfeld analysis of fragment charges and moments.
  ----------------------------------------------------------------------
  | Atom     1: N
  |   Hirshfeld charge        :      0.02703143
  |   Free atom volume        :     29.90025370
  |   Hirshfeld volume        :     21.49150081
  |   Hirshfeld dipole vector :     -0.01750944       0.00690604      -0.02381632
  |   Hirshfeld dipole moment :      0.03035607
  |   Hirshfeld second moments:      0.20576432      -0.00500947      -0.00497485
  |                                 -0.00500947       0.23002969       0.00846265
  |                                 -0.00497485       0.00846265       0.19094662
  ----------------------------------------------------------------------
  | Atom     2: C
  |   Hirshfeld charge        :      0.05948188
  |   Free atom volume        :     38.37861207
  |   Hirshfeld volume        :     29.50233780
  |   Hirshfeld dipole vector :     -0.00956981       0.00832812      -0.03267865
  |   Hirshfeld dipole moment :      0.03505472
  |   Hirshfeld second moments:      0.18299966      -0.03116176       0.00045273
  |                                 -0.03116176       0.19833904       0.01858898
  |                                  0.00045273       0.01858898       0.22305790
  ----------------------------------------------------------------------
  | Atom     3: C
  |   Hirshfeld charge        :      0.19842857
  |   Free atom volume        :     38.37861207
  |   Hirshfeld volume        :     30.39831438
  |   Hirshfeld dipole vector :     -0.03400854      -0.00249157      -0.00438064
  |   Hirshfeld dipole moment :      0.03437992
  |   Hirshfeld second moments:      0.09635387      -0.01855567      -0.01527687
  |                                 -0.01855567       0.34772593       0.05626581
  |                                 -0.01527687       0.05626581       0.13968884
  ----------------------------------------------------------------------
  | Atom     4: O
  |   Hirshfeld charge        :     -0.23348254
  |   Free atom volume        :     23.74229847
  |   Hirshfeld volume        :     20.92403888
  |   Hirshfeld dipole vector :     -0.03525610       0.00164510      -0.01335141
  |   Hirshfeld dipole moment :      0.03773539
  |   Hirshfeld second moments:      0.03810266       0.00026232      -0.01376930
  |                                  0.00026232       0.06946894       0.01047029
  |                                 -0.01376930       0.01047029       0.01727168
  ----------------------------------------------------------------------
  | Atom     5: H
  |   Hirshfeld charge        :      0.20989349
  |   Free atom volume        :     10.31539447
  |   Hirshfeld volume        :      4.97949718
  |   Hirshfeld dipole vector :      0.00266621      -0.09558235      -0.07505502
  |   Hirshfeld dipole moment :      0.12155801
  |   Hirshfeld second moments:      0.16341084      -0.00349629       0.00126955
  |                                 -0.00349629       0.14658785      -0.00594492
  |                                  0.00126955      -0.00594492       0.14857498
  ----------------------------------------------------------------------
  | Atom     6: H
  |   Hirshfeld charge        :      0.19081979
  |   Free atom volume        :     10.31539447
  |   Hirshfeld volume        :      5.38517081
  |   Hirshfeld dipole vector :      0.05142864       0.07188824      -0.06435924
  |   Hirshfeld dipole moment :      0.10933863
  |   Hirshfeld second moments:      0.11386758      -0.00893850      -0.00850868
  |                                 -0.00893850       0.15740125       0.00945144
  |                                 -0.00850868       0.00945144       0.14614660
  ----------------------------------------------------------------------
  | Atom     7: H
  |   Hirshfeld charge        :      0.22143400
  |   Free atom volume        :     10.31539447
  |   Hirshfeld volume        :      4.53179702
  |   Hirshfeld dipole vector :     -0.10391810       0.05488547      -0.04372413
  |   Hirshfeld dipole moment :      0.12539213
  |   Hirshfeld second moments:      0.15567986       0.00936817      -0.00828572
  |                                  0.00936817       0.17259723       0.00850936
  |                                 -0.00828572       0.00850936       0.16311137
  ----------------------------------------------------------------------
  | Atom     8: H
  |   Hirshfeld charge        :      0.09991888
  |   Free atom volume        :     10.31539447
  |   Hirshfeld volume        :      5.67397625
  |   Hirshfeld dipole vector :     -0.04793970       0.08893573       0.04538087
  |   Hirshfeld dipole moment :      0.11075740
  |   Hirshfeld second moments:      0.12948737       0.00537864       0.00161181
  |                                  0.00537864       0.11883662      -0.00677100
  |                                  0.00161181      -0.00677100       0.13329408
  ----------------------------------------------------------------------
  | Atom     9: C
  |   Hirshfeld charge        :     -0.08112432
  |   Free atom volume        :     38.37861207
  |   Hirshfeld volume        :     27.87624943
  |   Hirshfeld dipole vector :     -0.02033075      -0.00795836       0.01180840
  |   Hirshfeld dipole moment :      0.02482163
  |   Hirshfeld second moments:      0.20712189      -0.00741502      -0.00701772
  |                                 -0.00741502       0.22227668       0.00346197
  |                                 -0.00701772       0.00346197       0.21658905
  ----------------------------------------------------------------------
  | Atom    10: H
  |   Hirshfeld charge        :      0.08331812
  |   Free atom volume        :     10.31539447
  |   Hirshfeld volume        :      5.42696855
  |   Hirshfeld dipole vector :     -0.10345398       0.00167414      -0.01555988
  |   Hirshfeld dipole moment :      0.10463096
  |   Hirshfeld second moments:      0.10991175      -0.00024859      -0.00512529
  |                                 -0.00024859       0.13883935       0.00138156
  |                                 -0.00512529       0.00138156       0.13473931
  ----------------------------------------------------------------------
  | Atom    11: H
  |   Hirshfeld charge        :      0.08763803
  |   Free atom volume        :     10.31539447
  |   Hirshfeld volume        :      5.77292925
  |   Hirshfeld dipole vector :     -0.01466258      -0.01802904       0.10141027
  |   Hirshfeld dipole moment :      0.10403884
  |   Hirshfeld second moments:      0.11927497      -0.00551310      -0.00611510
  |                                 -0.00551310       0.13599268       0.00201629
  |                                 -0.00611510       0.00201629       0.10745458
  ----------------------------------------------------------------------
  | Atom    12: H
  |   Hirshfeld charge        :      0.07128143
  |   Free atom volume        :     10.31539447
  |   Hirshfeld volume        :      5.67181035
  |   Hirshfeld dipole vector :      0.02378593      -0.09315822      -0.03131777
  |   Hirshfeld dipole moment :      0.10111888
  |   Hirshfeld second moments:      0.12738201       0.00549494       0.00084287
  |                                  0.00549494       0.11027210      -0.00858796
  |                                  0.00084287      -0.00858796       0.12694354
  ----------------------------------------------------------------------
  | Atom    13: O
  |   Hirshfeld charge        :     -0.21115416
  |   Free atom volume        :     23.74229847
  |   Hirshfeld volume        :     20.75343266
  |   Hirshfeld dipole vector :     -0.04686728      -0.00528889       0.00001982
  |   Hirshfeld dipole moment :      0.04716476
  |   Hirshfeld second moments:      0.02444433      -0.00955039       0.01726567
  |                                 -0.00955039       0.08100487       0.01061903
  |                                  0.01726567       0.01061903       0.04281556
  ----------------------------------------------------------------------
  | Atom    14: Ca
  |   Hirshfeld charge        :      1.27638359
  |   Free atom volume        :    205.31242830
  |   Hirshfeld volume        :     66.93294732
  |   Hirshfeld dipole vector :      0.60520943       0.01103091       0.19795391
  |   Hirshfeld dipole moment :      0.63685625
  |   Hirshfeld second moments:      2.07166739      -0.04764092      -0.14659983
  |                                 -0.04764092       2.89304003       0.08843963
  |                                 -0.14659983       0.08843963       2.48352141
  ----------------------------------------------------------------------


  Total energy components:
  | Sum of eigenvalues            :        -607.55914962 Ha      -16532.52562681 eV
  | XC energy correction          :         -78.42840264 Ha       -2134.14541983 eV
  | XC potential correction       :         101.13686189 Ha        2752.07403601 eV
  | Free-atom electrostatic energy:        -432.99119325 Ha      -11782.28984476 eV
  | Hartree energy correction     :          12.55477336 Ha         341.63276516 eV
  | van der Waals energy corr.    :          -0.00421318 Ha          -0.11464653 eV
  | Entropy correction            :           0.00000000 Ha           0.00000000 eV
  | ---------------------------
  | Total energy                  :       -1005.29132344 Ha      -27355.36873676 eV
  | Total energy, T -> 0          :       -1005.29132344 Ha      -27355.36873676 eV
  | Free energy                   :       -1005.29132344 Ha      -27355.36873676 eV

  Derived energy quantities:
  | Kinetic energy                :        1009.05969056 Ha       27457.91122322 eV
  | Electrostatic energy          :       -1935.91839818 Ha      -52679.01989362 eV
  | Energy correction for multipole
  | error in Hartree potential    :          -0.02605071 Ha          -0.70887595 eV
  | Sum of eigenvalues per atom                       :       -1180.89468763 eV
  | Total energy (T->0) per atom                      :       -1953.95490977 eV
  | Free energy per atom                              :       -1953.95490977 eV

  atomic forces [eV/Ang]:
  -----------------------
  atom #    1
   Hellmann-Feynman + Multipole : 0.127571E+00 0.102649E+00 0.932263E-01
   Pulay + GGA                 : -.126140E+00 -.106504E+00 -.873993E-01
   Van der Waals               : -.776241E-03 0.379255E-02 -.507497E-02
   ----------------------------------------------------------------
   Total forces(   1)            : 0.655411E-03 -.623322E-04 0.752054E-03
  atom #    2
   Hellmann-Feynman + Multipole : -.674774E+00 -.122681E+00 0.254907E+01
   Pulay + GGA                 : 0.665399E+00 0.121043E+00 -.255472E+01
   Van der Waals               : 0.102551E-01 0.209610E-02 0.477248E-02
   ----------------------------------------------------------------
   Total forces(   2)            : 0.879789E-03 0.457654E-03 -.878538E-03
  atom #    3
   Hellmann-Feynman + Multipole : -.504024E+00 -.421784E-01 -.256189E-01
   Pulay + GGA                 : 0.499438E+00 0.346231E-01 0.235958E-01
   Van der Waals               : 0.505924E-02 0.790322E-02 0.153545E-02
   ----------------------------------------------------------------
   Total forces(   3)            : 0.473689E-03 0.347888E-03 -.487642E-03
  atom #    4
   Hellmann-Feynman + Multipole : 0.480766E+01 0.290721E+01 -.111350E+02
   Pulay + GGA                 : -.480168E+01 -.290310E+01 0.111333E+02
   Van der Waals               : -.551441E-02 -.395484E-02 0.179789E-02
   ----------------------------------------------------------------
   Total forces(   4)            : 0.465679E-03 0.147360E-03 0.918095E-04
  atom #    5
   Hellmann-Feynman + Multipole : -.655537E-02 0.662120E-01 0.365779E-01
   Pulay + GGA                 : 0.505165E-02 -.695765E-01 -.316866E-01
   Van der Waals               : 0.222202E-02 0.359458E-02 -.501040E-02
   ----------------------------------------------------------------
   Total forces(   5)            : 0.718300E-03 0.230150E-03 -.119019E-03
  atom #    6
   Hellmann-Feynman + Multipole : -.552098E-01 -.373786E-01 0.182866E-01
   Pulay + GGA                 : 0.577262E-01 0.391379E-01 -.165339E-01
   Van der Waals               : -.216863E-02 -.162557E-02 -.193246E-02
   ----------------------------------------------------------------
   Total forces(   6)            : 0.347778E-03 0.133716E-03 -.179724E-03
  atom #    7
   Hellmann-Feynman + Multipole : 0.606434E-01 -.275442E-01 0.178221E-01
   Pulay + GGA                 : -.613609E-01 0.316024E-01 -.184810E-01
   Van der Waals               : 0.147347E-02 -.418261E-02 0.401857E-03
   ----------------------------------------------------------------
   Total forces(   7)            : 0.755921E-03 -.124420E-03 -.257040E-03
  atom #    8
   Hellmann-Feynman + Multipole : 0.151524E-01 -.679594E-01 -.678446E-02
   Pulay + GGA                 : -.180329E-01 0.610226E-01 0.479227E-02
   Van der Waals               : 0.344769E-02 0.708653E-02 0.188215E-02
   ----------------------------------------------------------------
   Total forces(   8)            : 0.567232E-03 0.149727E-03 -.110042E-03
  atom #    9
   Hellmann-Feynman + Multipole : -.996889E+00 -.125075E+01 0.763592E+00
   Pulay + GGA                 : 0.100234E+01 0.125452E+01 -.765849E+00
   Van der Waals               : -.508921E-02 -.393378E-02 0.244848E-02
   ----------------------------------------------------------------
   Total forces(   9)            : 0.357531E-03 -.160892E-03 0.191381E-03
  atom #   10
   Hellmann-Feynman + Multipole : 0.382844E-01 -.351056E-01 0.507253E-01
   Pulay + GGA                 : -.399045E-01 0.360997E-01 -.479538E-01
   Van der Waals               : 0.219989E-02 -.769180E-03 -.286234E-02
   ----------------------------------------------------------------
   Total forces(  10)            : 0.579851E-03 0.224899E-03 -.907667E-04
  atom #   11
   Hellmann-Feynman + Multipole : -.677971E-02 -.172036E-02 -.594121E-01
   Pulay + GGA                 : 0.170338E-01 0.955769E-02 0.574280E-01
   Van der Waals               : -.970108E-02 -.759108E-02 0.186559E-02
   ----------------------------------------------------------------
   Total forces(  11)            : 0.553059E-03 0.246250E-03 -.118526E-03
  atom #   12
   Hellmann-Feynman + Multipole : -.491213E-01 0.168919E-01 0.585933E-01
   Pulay + GGA                 : 0.500593E-01 -.135980E-01 -.621852E-01
   Van der Waals               : -.390041E-03 -.307420E-02 0.357170E-02
   ----------------------------------------------------------------
   Total forces(  12)            : 0.547979E-03 0.219717E-03 -.201560E-04
  atom #   13
   Hellmann-Feynman + Multipole : -.323186E+01 -.334284E+01 0.122318E+02
   Pulay + GGA                 : 0.322184E+01 0.334163E+01 -.122320E+02
   Van der Waals               : 0.106379E-01 0.133572E-02 0.376077E-03
   ----------------------------------------------------------------
   Total forces(  13)            : 0.622806E-03 0.128468E-03 0.972545E-04
  atom #   14
   Hellmann-Feynman + Multipole : -.620697E+01 -.195642E+00 -.185849E+01
   Pulay + GGA                 : 0.621919E+01 0.196546E+00 0.186232E+01
   Van der Waals               : -.116557E-01 -.677431E-03 -.377150E-02
   ----------------------------------------------------------------
   Total forces(  14)            : 0.559918E-03 0.226595E-03 0.576081E-04
  Removing unitary transformations (pure translations, rotations) from forces on atoms.
  Atomic forces before filtering:
  | Net force on center of mass :  0.808494E-02 0.216478E-02 -.107135E-02 eV/A
  | Net torque on center of mass:  -.125422E-02 -.865093E-03 0.646158E-03 eV
  Atomic forces after filtering:
  | Net force on center of mass :  -.827567E-18 -.348449E-18 0.196003E-18 eV/A
  | Net torque on center of mass:  -.115245E-18 0.135989E-17 -.921958E-19 eV
 
  Energy and forces in a compact form:
  | Total energy uncorrected      :         -0.273553687367588E+05 eV
  | Total energy corrected        :         -0.273553687367588E+05 eV
  | Free energy                   :         -0.273553687367588E+05 eV
  Total atomic forces (unitary forces cleaned) [eV/Ang]:
  |   1          0.516053510152639E-04         -0.151350854706884E-03          0.859854269628123E-03
  |   2          0.308835324615658E-03          0.301387728036143E-03         -0.781086916782731E-03
  |   3         -0.884733152286646E-04          0.156695900785505E-03         -0.426073770504831E-03
  |   4         -0.113325219248248E-03         -0.165365561210934E-04          0.144642268187117E-03
  |   5          0.923231901180959E-04          0.161964698788645E-03         -0.522554643663933E-04
  |   6         -0.256991010291452E-03          0.503438509984710E-04         -0.644357165926036E-04
  |   7          0.151049054102169E-03         -0.191003780614212E-03         -0.109294727145488E-03
  |   8          0.175430773886252E-04         -0.211140876713085E-04          0.373407713098751E-04
  |   9         -0.217534222942642E-03         -0.327150372514473E-03          0.254120682537358E-03
  |  10         -0.252824748753182E-06          0.831712005925159E-04          0.136888894652668E-05
  |  11          0.233564988219267E-05          0.315292858692704E-04         -0.607793756855394E-04
  |  12         -0.482804904266754E-04          0.679500289138942E-04         -0.725106647403088E-05
  |  13          0.853810346001826E-04         -0.119146452558637E-03          0.139715910288632E-03
  |  14          0.157844011642461E-04         -0.267405897978367E-04          0.641342466539851E-04
 
  ------------------------------------ 
  Start decomposition of the XC Energy 
  ------------------------------------ 
  Hartree-Fock part   :          0.000000000 Ha              0.000000000 eV
  ------------------------------------ 
  X Energy            :        -76.076401712 Ha          -2070.144218361 eV
  C Energy GGA        :         -2.352000923 Ha            -64.001201470 eV
  Total XC Energy     :        -78.428402635 Ha          -2134.145419831 eV
  LDA X and C from self-consistent density 
  X Energy LDA        :        -69.879171607 Ha          -1901.509007130 eV
  C Energy LDA        :         -4.659041798 Ha           -126.778977767 eV
  ------------------------------------ 
  End decomposition of the XC Energy 
  ------------------------------------ 

------------------------------------------------------------
          Leaving FHI-aims.
          Date     :  20161129, Time     :  145736.245

          Computational steps:
          | Number of self-consistency cycles          :           13

          Detailed time accounting                     :  max(cpu_time)    wall_clock(cpu1)
          | Total time                                 :       26.080 s          26.106 s
          | Preparation time                           :        0.400 s           0.422 s
          | Grid partitioning                          :        0.116 s           0.114 s
          | Preloading free-atom quantities on grid    :        0.216 s           0.212 s
          | Free-atom superposition energy             :        0.040 s           0.040 s
          | Total time for integrations                :       10.084 s          10.064 s
          | Total time for solution of K.-S. equations :        0.600 s           0.571 s
          | Total time for density & force components  :        9.272 s           9.255 s
          | Total time for mixing                      :        0.124 s           0.114 s
          | Total time for Hartree multipole update    :        0.156 s           0.126 s
          | Total time for Hartree multipole sum       :        5.020 s           5.008 s
          | Total time for total energy evaluation     :        0.012 s           0.004 s
          | Total time for scaled ZORA corrections     :        0.000 s           0.000 s

          Have a nice day.
------------------------------------------------------------
