17
Energy: -32489.0612731 eV PBE+vdW (tier 2 basis)
N    0.583968  -0.945039  -0.363613
C    0.020598  -0.288433  0.871597
C    1.111082  0.199120  1.864944
O    0.898313  0.337229  3.039204
H    1.408658  -0.384688  -0.626751
H    1.002279  -1.842937  -0.083352
H    -0.486132  0.635110  0.541801
C    -0.985187  -1.159485  1.634588
C    -2.248767  -1.484180  0.888185
O    -2.316061  -1.407268  -0.365037
O    -3.317053  -1.893757  1.506553
H    -1.212978  -0.648197  2.583304
H    -0.529363  -2.119845  1.940491
O    2.252157  0.472612  1.205364
H    2.915426  0.828910  1.834605
H    -3.231677  -1.917276  2.482941
Ca    -1.098728  -1.183963  -2.077232
