17
Energy: -32489.1027706 eV PBE+vdW (tier 2 basis)
N    -0.764355  -1.860526  1.704612
C    0.077536  -0.680249  1.459500
C    1.525770  -1.142632  1.539750
O    2.129722  -1.427206  2.620878
H    -1.745368  -1.599821  1.573062
H    -0.585242  -2.597687  1.017965
H    -0.034100  -0.223390  0.460880
C    -0.271542  0.405771  2.506590
C    -0.404436  -0.102865  3.921230
O    -1.404814  0.199617  4.637377
O    0.532588  -0.837905  4.468543
H    -1.229154  0.862277  2.226029
H    0.471702  1.220742  2.504078
O    2.135540  -1.267128  0.410103
H    3.060957  -1.593841  0.507042
H    1.516342  -1.248752  3.461236
Ca    -0.685148  -0.904407  6.363126
