17
Energy: -32489.930285 eV PBE+vdW (tier 2 basis)
N    0.897389  0.602819  -0.734239
C    0.687924  -0.461569  0.333774
C    1.137721  0.048277  1.718384
O    1.032459  -0.618298  2.739084
H    1.897919  0.807272  -0.884896
H    0.440999  1.496053  -0.490817
H    -0.398689  -0.626117  0.400062
C    1.365680  -1.783794  -0.088857
C    1.140907  -2.768711  1.055129
O    2.134705  -3.147089  1.749428
O    -0.062011  -3.001892  1.414881
H    2.442339  -1.658749  -0.261566
H    0.885054  -2.161819  -1.002677
O    1.621798  1.280198  1.667427
H    1.889128  1.601538  2.557585
H    0.506420  0.285541  -1.635442
Ca    0.761258  -2.973661  3.462740
