17
Energy: -32489.7380528 eV PBE+vdW (tier 2 basis)
N    -0.357616  -0.442336  -0.011051
C    0.103662  -0.006063  1.366693
C    1.639739  -0.209239  1.475894
O    2.168393  -1.266691  1.122318
H    0.247308  -0.116309  -0.776731
H    -1.311519  -0.100688  -0.198600
H    -0.174896  1.046233  1.502805
C    -0.617376  -0.905592  2.411313
C    -0.097401  -2.323289  2.222635
O    0.614348  -2.865845  3.111178
O    -0.188906  -2.848817  1.040628
H    -1.705084  -0.847931  2.255143
H    -0.403713  -0.554563  3.427350
O    2.375944  0.729943  2.013776
H    1.903396  1.555826  2.244182
H    -0.380113  -1.513725  0.037335
Ca    1.925834  -3.599912  1.498132
