17
Energy: -32488.1372439 eV PBE+vdW (tier 2 basis)
N    -0.388578  0.060839  0.057556
C    -0.136822  -0.004207  1.455712
C    1.266681  0.472194  1.863919
O    2.171439  0.812890  1.182103
H    0.381054  -0.253597  -0.532344
H    -0.725108  0.965262  -0.263626
H    -0.857900  0.649385  1.972457
C    -0.387674  -1.496863  1.932994
C    -0.739573  -1.731553  3.352613
O    -1.643605  -2.525868  3.728107
O    -0.115131  -1.095016  4.359276
H    0.500863  -2.112036  1.701069
H    -1.204406  -1.893235  1.315962
O    1.405373  0.480180  3.309874
H    2.321083  0.737221  3.551696
H    0.651835  -0.359881  3.985360
Ca    -1.477710  -2.282915  5.867459
