17
Energy: -32488.0810333 eV PBE+vdW (tier 2 basis)
N    -0.503398  0.454938  0.227264
C    -0.075817  -0.051543  1.476124
C    1.416505  0.235457  1.695420
O    2.094261  0.866038  0.832226
H    -0.168278  -0.023950  -0.604966
H    -1.494146  0.670657  0.162773
H    -0.594107  0.515403  2.268402
C    -0.396039  -1.617608  1.731089
C    -0.774078  -1.944527  3.116064
O    -1.726681  -2.146440  3.748164
O    0.662841  -1.956680  4.022299
H    0.434321  -2.257035  1.404713
H    -1.277864  -1.853942  1.122137
O    2.016330  -0.132208  2.798011
H    1.268038  -1.191767  3.715113
H    0.451675  -1.911507  4.978315
Ca    3.866183  0.965099  2.064402
