17
Energy: -32488.1254024 eV PBE+vdW (tier 2 basis)
N    -0.987505  0.402760  0.309281
C    -0.424216  0.081838  1.610286
C    1.058834  0.118901  1.249257
O    1.751192  1.167771  1.326803
H    -1.577763  -0.311181  -0.111648
H    -1.422756  1.319512  0.249831
H    -0.569941  0.909316  2.318599
C    -0.961373  -1.196209  2.286879
C    -1.085137  -2.421854  1.410462
O    -2.058500  -3.032864  1.116654
O    0.203921  -2.841680  0.919502
H    -1.973411  -0.978182  2.649393
H    -0.346851  -1.450952  3.164911
O    1.703909  -0.929355  0.704548
H    1.102416  -1.855268  0.719648
H    0.086512  -3.629177  0.345804
Ca    3.544854  0.473649  0.347476
