17
Energy: -32489.0534988 eV PBE+vdW (tier 2 basis)
N    -0.355124  0.088117  -0.042925
C    -0.137361  -0.079970  1.377408
C    1.353036  0.238404  1.533303
O    1.745098  1.415248  1.793846
H    -0.264742  -0.738799  -0.626458
H    -1.182253  0.624898  -0.287640
H    -0.658413  0.731066  1.902248
C    -0.632519  -1.397617  2.036499
C    -0.120250  -2.688963  1.483600
O    1.066251  -2.871097  1.048942
O    -0.952696  -3.675632  1.474494
H    -1.729413  -1.426180  1.990857
H    -0.378409  -1.408291  3.113398
O    2.269011  -0.670773  1.289735
H    1.649672  -1.998134  1.121714
H    -0.548125  -4.513864  1.150834
Ca    3.821622  0.976214  1.397232
