17
Energy: -32489.3276279 eV PBE+vdW (tier 2 basis)
N    0.550223  -1.244322  0.382968
C    -0.116579  -0.343626  1.294165
C    0.883527  0.203162  2.321810
O    0.954316  -0.135775  3.532661
H    1.080588  -1.998280  0.817050
H    1.099923  -0.785358  -0.340991
H    -0.460850  0.525883  0.713756
C    -1.347594  -1.097029  1.884245
C    -2.211925  -0.326038  2.849425
O    -1.894350  -0.194725  4.056225
O    -3.322516  0.245769  2.472346
H    -1.001407  -2.004197  2.401020
H    -1.927176  -1.432289  1.014428
O    1.743369  1.030559  1.785786
H    2.452753  1.295298  2.410648
H    -3.551352  0.083451  1.534281
Ca    -0.203951  -0.327483  5.348177
