17
Energy: -32489.8382948 eV PBE+vdW (tier 2 basis)
N    1.742776  0.732074  0.390677
C    1.021548  -0.326547  1.200597
C    0.526187  0.459503  2.435892
O    0.634497  1.667130  2.481043
H    2.767151  0.649594  0.439408
H    1.466213  0.748147  -0.598561
H    0.140352  -0.642576  0.623722
C    1.904145  -1.541515  1.510988
C    1.123837  -2.793482  1.879533
O    1.692221  -3.680161  2.603996
O    -0.059174  -2.988674  1.425674
H    2.634398  -1.338819  2.305692
H    2.480039  -1.824022  0.612527
O    -0.005519  -0.330129  3.362333
H    -0.318507  0.223545  4.110583
H    1.468654  1.637926  0.863535
Ca    -0.051818  -4.964994  2.405360
