17
Energy: -32489.3721903 eV PBE+vdW (tier 2 basis)
N    0.438882  -0.139390  0.032809
C    -0.000894  -0.024366  1.382859
C    1.188939  -0.128088  2.344466
O    1.194536  0.389285  3.488599
H    -0.172471  0.295925  -0.652168
H    0.742979  -1.061038  -0.272343
H    -0.402962  0.990841  1.520278
C    -1.141709  -1.049667  1.818463
C    -2.058432  -0.612421  2.926650
O    -1.672000  0.104266  3.882396
O    -3.319243  -0.956083  2.936602
H    -0.698072  -2.015694  2.114490
H    -1.725098  -1.255639  0.909710
O    2.195714  -0.813877  1.890944
H    2.944576  -0.844252  2.527011
H    -3.584756  -1.514285  2.177272
Ca    -0.172988  1.099484  5.007962
