17
Energy: -32489.7210947 eV PBE+vdW (tier 2 basis)
N    0.240399  -0.270352  0.230166
C    0.322315  -0.344986  1.693620
C    1.852685  -0.330171  1.998771
O    2.334936  -0.339434  3.158973
H    1.847907  -0.229813  0.195796
H    -0.137919  -1.103719  -0.221255
H    -0.085536  0.577711  2.134655
C    -0.461782  -1.563745  2.253272
C    -0.715831  -1.651005  3.746679
O    0.051743  -1.193511  4.614950
O    -1.779976  -2.278212  4.177836
H    0.042568  -2.507234  1.975478
H    -1.434044  -1.580071  1.739199
O    2.586919  -0.262799  0.956490
H    -0.261200  0.547941  -0.114980
H    -2.367882  -2.614005  3.471006
Ca    2.005697  -0.520594  5.233345
