17
Energy: -32489.6292734 eV PBE+vdW (tier 2 basis)
N    -1.709571  0.568500  1.733813
C    -0.785754  -0.490502  2.250394
C    0.601254  -0.408863  1.603511
O    1.580904  -0.954627  1.991153
H    -2.654078  0.379317  2.089947
H    -1.451965  1.459534  2.175769
H    -0.594212  -0.346879  3.325520
C    -1.357406  -1.919182  2.106162
C    -1.712466  -2.345404  0.696782
O    -1.711204  -1.543185  -0.259410
O    -2.054478  -3.578282  0.445205
H    -2.260708  -2.022156  2.732226
H    -0.627800  -2.627671  2.530193
O    0.611270  0.400730  0.426756
H    1.549629  0.444339  0.136073
H    -2.025639  -4.176255  1.220732
Ca    -1.443776  0.557586  -0.690827
