17
Energy: -32489.826757 eV PBE+vdW (tier 2 basis)
N    0.464217  0.419834  -0.688354
C    0.547751  -0.324398  0.638063
C    1.221387  0.554280  1.709843
O    1.684283  0.081302  2.716404
H    1.383967  0.485728  -1.150479
H    0.141429  1.388440  -0.528497
H    -0.492656  -0.481355  0.963031
C    1.260639  -1.668915  0.476327
C    1.191150  -2.499841  1.750359
O    2.222348  -3.152713  2.123121
O    0.098130  -2.564660  2.417910
H    2.317168  -1.543587  0.205326
H    0.773283  -2.266197  -0.311856
O    1.172659  1.853646  1.372428
H    1.566562  2.405787  2.081764
H    -0.184784  -0.038271  -1.344949
Ca    1.169466  -3.737080  3.932558
