17
Energy: -32489.0604224 eV PBE+vdW (tier 2 basis)
N    -0.203307  -0.157310  0.167883
C    0.227624  -0.356502  1.511263
C    1.485018  -1.217971  1.714738
O    1.941953  -1.547709  2.862086
H    -0.423889  -1.003297  -0.354035
H    0.387871  0.457699  -0.385662
H    0.529476  0.627905  1.918606
C    -0.979636  -0.875407  2.361375
C    -0.937121  -0.708592  3.851985
O    -2.003751  -0.507220  4.511132
O    0.185557  -0.778056  4.525832
H    -1.169311  -1.944540  2.159100
H    -1.864842  -0.343551  1.989062
O    2.118626  -1.584326  0.655884
H    2.933578  -2.100255  0.858962
H    1.312748  -1.219436  3.626177
Ca    -1.009432  -0.453544  6.429075
