17
Energy: -32490.2851443 eV PBE+vdW (tier 2 basis)
N    -0.783627  0.666528  0.549502
C    -0.252371  -0.129070  1.695797
C    1.188744  -0.528856  1.353541
O    1.599925  -0.574693  0.183281
H    -1.799364  0.765839  0.652549
H    -0.427477  1.626410  0.628679
H    -0.213840  0.467992  2.619917
C    -1.124842  -1.367423  2.017110
C    -1.376903  -2.329193  0.869115
O    -0.999085  -2.101106  -0.293543
O    -2.031939  -3.439784  1.085242
H    -2.104072  -1.024150  2.393069
H    -0.672082  -1.916588  2.857929
O    1.909777  -0.817704  2.403198
H    2.825634  -1.083136  2.160073
H    -2.305480  -3.578449  2.015084
Ca    0.044002  -0.561617  -1.442543
