18
Energy: -238541.517837 eV PBE+vdW (tier 2 basis)
N    -0.105857  1.177313  0.835808
C    -0.579448  -0.100157  1.284010
C    0.353222  -0.911168  2.204687
O    -0.048766  -1.803624  2.980474
H    -0.039250  1.871316  1.578117
H    -2.977182  -1.151678  -1.625414
H    -1.488222  0.069874  1.883007
C    -0.967347  -0.970430  0.036535
C    -2.236219  -1.774271  0.183417
O    -2.455927  -2.491587  1.211570
N    -3.120466  -1.727231  -0.800598
H    -0.160701  -1.671085  -0.232430
H    -1.059120  -0.261603  -0.795943
H    0.779732  1.143875  0.331706
H    -3.971364  -2.284171  -0.756706
O    1.618815  -0.582743  2.111902
H    2.173920  -1.117830  2.719424
Ba    -1.941821  -3.384805  3.391433
