18
Energy: -238541.944987 eV PBE+vdW (tier 2 basis)
N    1.561667  -0.688827  0.411179
C    0.623289  -0.551143  1.552621
C    0.919278  -1.675689  2.562156
O    1.467465  -2.722404  2.215424
H    2.471843  -0.307680  0.689066
H    1.247762  -0.080451  -0.350675
H    0.772006  0.413202  2.068957
C    -0.859857  -0.560810  1.106832
C    -1.378658  -1.811215  0.400945
O    -0.604691  -2.673176  -0.093199
N    -2.696693  -1.935748  0.300440
H    -1.013998  0.292235  0.424866
H    -1.496977  -0.346759  1.976970
H    -3.344121  -1.255042  0.686540
H    -3.092911  -2.726880  -0.202942
O    0.553659  -1.533093  3.819186
H    0.207503  -0.644996  4.035536
Ba    1.725433  -3.487525  -0.204903
