18
Energy: -238541.762013 eV PBE+vdW (tier 2 basis)
N    2.178749  -5.036920  -0.717626
C    1.944768  -5.340624  0.693359
C    2.952316  -6.449340  1.068974
O    2.926817  -7.069926  2.151950
H    1.502872  -5.450116  -1.360070
H    2.251354  -4.039720  -0.914369
H    2.254875  -4.465982  1.287976
C    0.485554  -5.654516  1.130427
C    -0.066790  -6.993970  0.677364
O    0.335406  -8.076361  1.198331
N    -0.987397  -7.006819  -0.280681
H    -0.150765  -4.828800  0.787971
H    0.445017  -5.646415  2.228266
H    -1.379441  -6.152789  -0.665428
H    -1.399477  -7.888690  -0.580778
O    3.838906  -6.688131  0.157871
H    3.555563  -6.035800  -0.594768
Ba    1.850675  -9.159080  2.831229
