18
Energy: -238542.198602 eV PBE+vdW (tier 2 basis)
N    -1.259233  -0.495731  0.699204
C    -0.168832  -0.056640  1.608381
C    1.114732  0.112174  0.789292
O    1.283035  -0.403934  -0.320376
H    -1.610238  0.324679  0.194304
H    -2.053628  -0.805135  1.266875
H    -0.386189  0.928680  2.050920
C    0.037814  -1.011410  2.805384
C    0.437152  -2.446714  2.485272
O    0.360948  -2.918428  1.317161
N    0.851920  -3.195704  3.499168
H    -0.898607  -1.042588  3.386857
H    0.782126  -0.565595  3.480621
H    0.925063  -2.838830  4.447450
H    1.094002  -4.172047  3.344114
O    2.008126  0.858317  1.400943
H    2.822632  0.950746  0.859922
Ba    -0.147822  -2.433839  -1.047494
