18
Energy: -238542.022732 eV PBE+vdW (tier 2 basis)
N    -0.063613  -0.121838  -0.207834
C    0.158744  0.269032  1.243128
C    1.657138  0.028007  1.513774
O    2.150620  -1.010713  0.968300
H    -1.032678  -0.393783  -0.423561
H    0.199361  0.640012  -0.849696
H    -0.102323  1.325640  1.364105
C    -0.706798  -0.649930  2.143586
C    -0.214475  -0.789385  3.589063
O    0.903784  -1.300509  3.838316
N    -1.042138  -0.400797  4.554231
H    -0.675612  -1.675832  1.742476
H    -1.750811  -0.312131  2.114632
H    -1.958323  -0.006710  4.367338
H    -0.780608  -0.537144  5.528395
O    2.238597  0.761705  2.350675
H    0.582728  -0.921882  -0.382661
Ba    3.398416  -1.318082  3.291701
