18
Energy: -238540.333853 eV PBE+vdW (tier 2 basis)
N    -0.957784  0.335405  0.416505
C    -0.525249  -0.067818  1.734309
C    0.989175  -0.341803  1.809645
O    1.693883  -0.572419  0.866799
H    -0.853421  1.340157  0.281288
H    -0.400559  -0.124630  -0.307600
H    -0.770089  0.731225  2.449193
C    -1.340501  -1.352356  2.124741
C    -1.625846  -1.627385  3.570086
O    -2.751429  -2.190589  3.889925
N    -0.764553  -1.304873  4.507168
H    -0.853876  -2.248147  1.700404
H    -2.302362  -1.253664  1.604948
H    0.147737  -0.891530  4.249067
H    -0.962477  -1.490796  5.487212
O    1.445881  -0.310939  3.110024
H    2.411661  -0.480149  3.096444
Ba    -4.829190  -3.184690  4.049842
