18
Energy: -238541.791919 eV PBE+vdW (tier 2 basis)
N    0.169889  -0.018791  -0.070563
C    0.106816  -0.237352  1.408657
C    1.373675  0.255255  2.119372
O    2.343178  0.705445  1.423467
H    -0.619786  -0.793981  -0.443651
H    -0.080737  0.937634  -0.337160
H    -0.735504  0.358348  1.790319
C    -0.173434  -1.732394  1.693871
C    -1.333190  -2.264339  0.849358
O    -1.521341  -1.813798  -0.309043
N    -2.095453  -3.228844  1.353351
H    -0.359792  -1.859005  2.766500
H    0.710774  -2.340939  1.442890
H    -1.964558  -3.600518  2.287287
H    -2.831773  -3.630494  0.776157
O    1.411462  0.201253  3.390669
H    1.110108  -0.206351  -0.437535
Ba    3.660495  1.302750  3.525526
