18
Energy: -238541.331624 eV PBE+vdW (tier 2 basis)
N    0.471483  -0.865334  -0.349216
C    0.043241  -0.261194  0.949236
C    1.329973  0.192725  1.683827
O    2.419887  -0.210493  1.340996
H    0.588065  -0.079621  -1.001047
H    1.459287  -1.136025  -0.162567
H    -0.582742  0.619624  0.752592
C    -0.719635  -1.232118  1.884728
C    -2.078059  -1.645968  1.373104
O    -2.186189  -2.254508  0.260588
N    -3.150668  -1.375877  2.097275
H    -0.807296  -0.754433  2.868451
H    -0.124678  -2.148185  2.032845
H    -3.091314  -0.903347  2.994746
H    -4.072786  -1.669679  1.779105
O    1.058810  1.015306  2.695684
H    1.893161  1.271145  3.144024
Ba    -0.914685  -2.846747  -1.679325
