33
Energy: -573177.719351 eV PBE+vdW (tier 2 basis)
C    -2.550364  -1.622058  -0.160748
C    -1.847897  -1.047943  1.034747
O    -0.600339  -1.237879  1.108882
H    -2.160128  -1.131591  -1.063748
H    -3.636674  -1.483551  -0.118245
H    -2.311344  -2.689400  -0.242664
N    -2.589508  -0.368553  1.932987
C    -2.119505  0.535736  2.988275
C    -1.931909  -0.223106  4.326587
O    -0.823415  -0.776608  4.614223
H    -3.584332  -0.328994  1.724083
H    -1.111802  0.881207  2.707830
C    -3.037730  1.778844  3.083082
C    -3.007694  2.628637  1.835179
C    -4.087100  2.625030  0.938452
C    -1.887021  3.460855  1.571525
C    -4.055030  3.427648  -0.196600
C    -1.851289  4.261868  0.439675
C    -2.932522  4.248212  -0.451995
H    -2.703520  2.373967  3.946295
H    -4.076302  1.469311  3.283280
H    -4.973697  2.023871  1.147241
H    -1.058853  3.497179  2.281873
H    -4.899872  3.439942  -0.884079
H    -0.997250  4.910795  0.252377
H    -2.917649  4.880401  -1.339205
N    -2.937295  -0.299277  5.180788
C    -2.876094  -1.008404  6.465565
H    -3.783710  0.224345  4.974390
H    -3.897315  -1.239163  6.780889
H    -2.392086  -0.380461  7.224538
H    -2.303475  -1.933375  6.346425
Hg    0.735042  -1.061355  2.965101
