33
Energy: -573177.761245 eV PBE+vdW (tier 2 basis)
C    -0.706584  -0.245554  4.707951
C    -0.631431  0.103089  3.251704
O    0.280810  -0.481095  2.583363
H    -1.484685  0.319644  5.233153
H    0.269940  -0.066372  5.175128
H    -0.916697  -1.320872  4.800013
N    -1.525227  0.981094  2.764724
C    -1.868315  1.263849  1.364505
C    -1.058851  2.470297  0.837898
O    0.078346  2.308055  0.263834
H    -2.161881  1.389727  3.450700
H    -1.540032  0.406830  0.754265
C    -3.417125  1.315715  1.175233
C    -4.178555  2.314183  2.014798
C    -4.614855  3.543053  1.454427
C    -4.519773  2.028610  3.347558
C    -5.331681  4.465847  2.216519
C    -5.230920  2.954038  4.111303
C    -5.628273  4.182215  3.550722
H    -3.777992  0.299309  1.386679
H    -3.600507  1.495031  0.106499
H    -4.448989  3.740750  0.392668
H    -4.298582  1.047589  3.774726
H    -5.679763  5.392694  1.762477
H    -5.505419  2.715481  5.138301
H    -6.192803  4.894455  4.151063
N    -1.527971  3.691105  0.977694
C    -0.831954  4.908414  0.545083
H    -2.478797  3.785956  1.358438
H    -0.898891  5.019931  -0.544794
H    0.223087  4.858089  0.833460
H    -1.310659  5.763758  1.029172
Hg    1.021028  0.324086  0.631736
