33
Energy: -573178.22456 eV PBE+vdW (tier 2 basis)
C    0.405419  0.912352  1.159643
C    -0.288810  -0.106237  1.998330
O    0.332562  -0.841511  2.849235
H    0.855379  1.681991  1.805219
H    -0.260142  1.405833  0.444232
H    1.227754  0.426374  0.616642
N    -1.595414  -0.306933  1.833060
C    -2.421120  -1.278850  2.522520
C    -3.544517  -1.613770  1.483496
O    -3.826621  -0.727686  0.674111
H    -2.108908  0.144694  1.058455
H    -1.814516  -2.150291  2.798477
C    -3.149542  -0.686756  3.804952
C    -2.158904  -0.261993  4.834340
C    -1.583869  -1.212720  5.712535
C    -1.723644  1.083678  4.888831
C    -0.518146  -0.876710  6.527726
C    -0.665406  1.455183  5.700885
C    0.017732  0.457108  6.488536
H    -3.799458  -1.483353  4.189834
H    -3.782956  0.148425  3.479894
H    -1.974386  -2.230526  5.736004
H    -2.227804  1.837071  4.283327
H    -0.079328  -1.606964  7.207668
H    -0.346228  2.495825  5.768071
H    0.732295  0.773417  7.252823
N    -4.134452  -2.808642  1.576620
C    -5.193091  -3.242141  0.660205
H    -3.753578  -3.495815  2.220285
H    -4.771051  -3.795892  -0.188622
H    -5.717897  -2.358612  0.284464
H    -5.888284  -3.889176  1.204782
Hg    1.396355  -0.023656  4.616312
