33
Energy: -573178.614481 eV PBE+vdW (tier 2 basis)
C    -1.027651  1.036304  2.266407
C    -1.957122  -0.095582  2.591830
O    -2.226539  -0.266441  3.819615
H    -1.512194  1.976849  2.565781
H    -0.764749  1.095507  1.204767
H    -0.116696  0.941201  2.869918
N    -2.434851  -0.808592  1.549127
C    -3.491050  -1.843347  1.394123
C    -4.798253  -1.491880  2.139129
O    -4.976582  -1.701012  3.371331
H    -2.066828  -0.487821  0.657625
H    -3.739651  -1.773594  0.327208
C    -3.025846  -3.336362  1.548753
C    -2.200549  -3.783408  2.739856
C    -2.813369  -4.267145  3.961248
C    -0.809203  -3.817191  2.665072
C    -1.994984  -4.709261  5.053532
C    -0.025839  -4.281631  3.736704
C    -0.606498  -4.701318  4.935026
H    -2.437708  -3.559885  0.649008
H    -3.936361  -3.949822  1.475502
H    -3.870258  -4.554032  3.951631
H    -0.313481  -3.504521  1.745675
H    -2.478467  -5.110772  5.944629
H    1.057945  -4.316492  3.623634
H    0.014341  -5.054975  5.756740
N    -5.774187  -0.978321  1.396611
C    -7.085041  -0.594147  1.927559
H    -5.632656  -0.888941  0.394294
H    -7.768423  -1.453267  1.918560
H    -7.496023  0.201294  1.299068
H    -6.971072  -0.238129  2.955482
Hg    -3.086039  -2.117583  4.627267
