33
Energy: -573177.123741 eV PBE+vdW (tier 2 basis)
C    -0.400529  2.009395  0.308355
C    0.021182  0.985787  1.306655
O    1.205836  1.028143  1.756662
H    -0.323922  1.584469  -0.705321
H    0.294794  2.855024  0.357020
H    -1.422816  2.360618  0.482421
N    -0.815569  0.027213  1.786484
C    -1.755834  -0.791914  1.026059
C    -0.917177  -1.627831  0.014766
O    0.323877  -1.447056  -0.097160
H    -0.424354  -0.451437  2.598138
H    -2.166224  -1.499545  1.761543
C    -2.961030  -0.026717  0.388663
C    -4.178214  -0.887245  0.174165
C    -4.906784  -1.386319  1.295299
C    -4.645397  -1.165446  -1.124869
C    -6.059536  -2.133894  1.116384
C    -5.804705  -1.910486  -1.305215
C    -6.515339  -2.402262  -0.182538
H    -2.664654  0.448340  -0.553807
H    -3.225011  0.772507  1.098330
H    -4.571437  -1.150551  2.306896
H    -4.121404  -0.759260  -1.991357
H    -6.618109  -2.498042  1.977239
H    -6.180918  -2.106658  -2.308645
H    -7.424988  -2.982957  -0.333602
N    -1.561691  -2.532985  -0.720744
C    -0.914069  -3.494976  -1.609193
H    -2.584047  -2.508071  -0.715900
H    -1.476348  -4.434523  -1.584568
H    0.115233  -3.659939  -1.280604
H    -0.901833  -3.113640  -2.640482
Hg    2.309214  -0.997082  1.372391
