33
Energy: -573177.316889 eV PBE+vdW (tier 2 basis)
C    -0.662186  -0.920295  0.064230
C    -0.237488  -0.454160  1.414973
O    0.950220  -0.662379  1.798364
H    -0.390364  -0.159877  -0.684880
H    -1.736703  -1.127535  0.014519
H    -0.098737  -1.826993  -0.188920
N    -1.094142  0.178177  2.255878
C    -2.074645  1.181905  1.884605
C    -1.304576  2.530312  1.796416
O    -0.040841  2.555413  1.772148
H    -0.718365  0.288263  3.199256
H    -2.447429  0.950974  0.875737
C    -3.262242  1.148241  2.900206
C    -4.389476  2.103190  2.611598
C    -4.636073  3.204448  3.485413
C    -5.251362  1.893509  1.515954
C    -5.720619  4.047275  3.280001
C    -6.333147  2.737596  1.309398
C    -6.572591  3.820726  2.192725
H    -2.867403  1.335182  3.909256
H    -3.645674  0.118016  2.885229
H    -3.979624  3.361024  4.342203
H    -5.098020  1.042786  0.850581
H    -5.914627  4.870281  3.966204
H    -7.015783  2.560830  0.478997
H    -7.429632  4.472177  2.023573
N    -2.005212  3.653968  1.669040
C    -1.425887  4.995644  1.601947
H    -3.014012  3.563646  1.529977
H    -1.161467  5.245504  0.564986
H    -0.524928  5.041004  2.220015
H    -2.168005  5.713586  1.964294
Hg    1.869685  1.295315  2.718508
