33
Energy: -573177.64804 eV PBE+vdW (tier 2 basis)
C    -1.249564  -0.983905  -0.357321
C    -0.819902  -0.701531  1.052785
O    0.381211  -0.332063  1.215388
H    -1.072252  -0.085190  -0.964310
H    -2.306446  -1.264133  -0.428056
H    -0.618968  -1.781211  -0.771632
N    -1.734161  -0.849824  2.029163
C    -1.708512  -0.314936  3.399044
C    -1.190119  -1.352840  4.425265
O    -0.014672  -1.826490  4.330418
H    -2.649419  -1.168415  1.715132
H    -0.938526  0.476828  3.423634
C    -3.037624  0.389544  3.719753
C    -4.359580  -0.316701  3.502074
C    -4.520770  -1.697504  3.304904
C    -5.521494  0.505445  3.517536
C    -5.795453  -2.240849  3.133741
C    -6.789466  -0.035813  3.353662
C    -6.935372  -1.411839  3.158803
H    -3.053218  1.316879  3.124297
H    -2.981867  0.758159  4.760817
H    -3.670586  -2.381900  3.292154
H    -5.410967  1.580837  3.664863
H    -5.911771  -3.313464  2.982753
H    -7.664294  0.612299  3.372949
H    -7.924330  -1.847900  3.023483
N    -1.963529  -1.726358  5.432847
C    -1.551996  -2.653608  6.489838
H    -2.935176  -1.423290  5.427870
H    -0.476062  -2.553990  6.660965
H    -1.771751  -3.689509  6.198677
H    -2.106002  -2.408221  7.400887
Hg    1.560642  -0.676504  3.123617
