33
Energy: -573177.586826 eV PBE+vdW (tier 2 basis)
C    1.793380  1.443775  1.496880
C    0.464524  0.798020  1.232098
O    0.283088  0.325417  0.067411
H    2.566985  0.662742  1.511639
H    1.819971  2.006029  2.436825
H    2.032554  2.115537  0.662530
N    -0.431511  0.786810  2.234922
C    -1.864242  0.442991  2.284464
C    -2.115702  -1.055404  2.451111
O    -1.454188  -1.927279  1.800115
H    -0.082807  1.204848  3.093851
H    -2.220924  0.949003  3.189220
C    -2.711796  1.039311  1.107299
C    -4.180604  0.971129  1.408237
C    -4.949932  -0.149000  0.997542
C    -4.804131  2.003818  2.134148
C    -6.291322  -0.252219  1.337232
C    -6.144269  1.901824  2.479263
C    -6.893517  0.770323  2.084317
H    -2.494627  0.508625  0.165031
H    -2.384138  2.079201  0.977133
H    -4.490823  -0.917860  0.372801
H    -4.234146  2.886773  2.426903
H    -6.882477  -1.102765  1.000960
H    -6.626679  2.696936  3.046486
H    -7.951794  0.709607  2.337098
N    -3.068229  -1.495949  3.271547
C    -3.825151  -0.823277  4.326609
H    -3.204356  -2.508644  3.207962
H    -4.883844  -0.764191  4.036874
H    -3.453654  0.187453  4.508345
H    -3.739966  -1.408021  5.250052
Hg    -0.836675  -1.584558  -0.375905
