33
Energy: -573177.581581 eV PBE+vdW (tier 2 basis)
C    1.248103  -0.558182  2.533704
C    -0.119910  -0.025873  2.258105
O    -0.475639  1.137803  2.607090
H    1.987505  0.163600  2.162018
H    1.438277  -1.539174  2.085710
H    1.396153  -0.633010  3.620885
N    -0.993154  -0.818801  1.597124
C    -2.368141  -0.500738  1.250786
C    -3.026511  0.402412  2.298429
O    -2.971712  0.084069  3.524052
H    -0.653214  -1.725757  1.277675
H    -2.386930  0.016741  0.277892
C    -3.190256  -1.828827  1.127975
C    -2.671804  -2.786538  0.092494
C    -2.758267  -2.471140  -1.296378
C    -2.135285  -4.028194  0.482255
C    -2.334378  -3.374790  -2.255806
C    -1.705543  -4.934731  -0.478045
C    -1.802949  -4.610390  -1.854386
H    -4.219364  -1.530761  0.869310
H    -3.226887  -2.306857  2.115287
H    -3.188330  -1.518536  -1.610162
H    -2.088460  -4.293082  1.539251
H    -2.419124  -3.135331  -3.314567
H    -1.303157  -5.902215  -0.180220
H    -1.465719  -5.328401  -2.601568
N    -3.733416  1.441135  1.860687
C    -4.483292  2.335513  2.734679
H    -3.687703  1.677231  0.871759
H    -4.939114  1.763721  3.548844
H    -5.259900  2.836264  2.148115
H    -3.822121  3.112251  3.155587
Hg    -1.482759  1.426587  4.730418
