33
Energy: -573177.919482 eV PBE+vdW (tier 2 basis)
C    -0.194723  0.518932  0.123891
C    -0.307381  0.129366  1.558412
O    0.715835  -0.102359  2.284369
H    -1.160244  0.707152  -0.357370
H    0.321752  -0.289901  -0.413689
H    0.434923  1.414617  0.026165
N    -1.532722  -0.022070  2.097874
C    -1.780939  -0.516285  3.436060
C    -2.674830  -1.815231  3.322001
O    -2.054972  -2.835658  3.046574
H    -2.331299  0.082164  1.472580
H    -0.826826  -0.889148  3.820802
C    -2.327610  0.596150  4.422497
C    -1.190266  1.515554  4.704356
C    -0.998084  2.684990  3.930434
C    -0.208843  1.143592  5.657868
C    0.190829  3.388382  3.996437
C    0.991988  1.821661  5.742332
C    1.256333  2.916944  4.849204
H    -2.659550  0.081146  5.333404
H    -3.179064  1.126511  3.976324
H    -1.791539  3.031467  3.268086
H    -0.393271  0.295340  6.318345
H    0.336915  4.302011  3.419363
H    1.746003  1.538374  6.476730
H    2.120141  3.561625  5.030634
N    -3.998312  -1.702011  3.473256
C    -4.903246  -2.856273  3.377687
H    -4.395900  -0.815754  3.764617
H    -5.851649  -2.527799  2.941416
H    -5.085754  -3.285848  4.370678
H    -4.443872  -3.614092  2.736556
Hg    2.042484  1.510636  3.098822
