33
Energy: -573177.297562 eV PBE+vdW (tier 2 basis)
C    0.706888  -0.522629  1.444264
C    -0.167712  -0.875323  2.601601
O    0.315764  -0.829021  3.770895
H    1.724548  -0.877036  1.652473
H    0.772245  0.572449  1.351660
H    0.347343  -0.960612  0.506731
N    -1.451369  -1.267604  2.423441
C    -2.406654  -0.638464  1.519039
C    -3.157752  0.429889  2.369758
O    -3.082590  0.421356  3.626728
H    -1.892893  -1.588647  3.287288
H    -1.850113  -0.131020  0.719367
C    -3.382159  -1.686343  0.905800
C    -2.674381  -2.704785  0.056417
C    -2.274875  -2.374579  -1.269385
C    -2.410164  -3.998650  0.556740
C    -1.642939  -3.310922  -2.068219
C    -1.778022  -4.939247  -0.240149
C    -1.389400  -4.599990  -1.558685
H    -4.125290  -1.152123  0.295012
H    -3.932731  -2.177174  1.721010
H    -2.496656  -1.384199  -1.670689
H    -2.730392  -4.266233  1.563806
H    -1.356421  -3.064365  -3.089445
H    -1.587788  -5.943498  0.136070
H    -0.898503  -5.344770  -2.184885
N    -3.908172  1.322757  1.725051
C    -4.682872  2.377455  2.378876
H    -4.021152  1.223315  0.718467
H    -4.705391  3.255077  1.724824
H    -4.217528  2.627534  3.336223
H    -5.712327  2.038543  2.561462
Hg    -1.190542  0.122861  5.317452
