27
Energy: -568996.861355 eV PBE+vdW (tier 2 basis)
C    1.059838  -0.623710  0.560864
C    0.506433  -0.192149  1.868640
O    1.242662  0.346916  2.746122
H    1.038246  0.213506  -0.154715
H    0.515433  -1.477124  0.139690
H    2.114790  -0.892164  0.701760
N    -0.819654  -0.360935  2.184248
C    -1.920299  -0.155571  1.215751
C    -1.808177  1.296068  0.722376
O    -0.896895  2.065910  1.168757
H    -1.820351  -0.855453  0.374532
C    -3.217135  -0.404806  2.045562
C    -2.734362  -0.812442  3.450109
C    -1.304618  -0.289988  3.539468
H    -3.836967  -1.181865  1.587524
H    -3.820691  0.510754  2.087384
H    -2.699102  -1.906657  3.554693
H    -3.372273  -0.427225  4.251636
H    -0.623759  -0.799963  4.232527
H    -1.323181  0.799112  3.899966
N    -2.662008  1.772528  -0.178353
C    -3.584808  1.049602  -1.049916
H    -2.580519  2.781000  -0.337957
H    -3.267831  1.162282  -2.096340
H    -3.621311  -0.012486  -0.797599
H    -4.587463  1.486559  -0.946352
Hg    0.212978  2.362260  3.305990
