27
Energy: -568996.902873 eV PBE+vdW (tier 2 basis)
C    -0.318849  -0.551212  -0.122815
C    -0.175816  -0.349720  1.340306
O    0.939877  -0.508106  1.917962
H    -0.077728  0.380334  -0.659136
H    -1.326777  -0.881217  -0.400790
H    0.416815  -1.299990  -0.444047
N    -1.241494  0.012111  2.127895
C    -2.266621  0.994729  1.705490
C    -1.524048  2.298595  1.366543
O    -0.270120  2.403260  1.534597
H    -2.809014  0.625033  0.822939
C    -3.196828  1.142389  2.947978
C    -2.666953  0.128476  3.978580
C    -1.224938  -0.131625  3.560667
H    -4.241704  0.950608  2.685032
H    -3.141891  2.165840  3.341330
H    -3.211961  -0.824869  3.911586
H    -2.747926  0.481105  5.011423
H    -0.772634  -1.085016  3.862217
H    -0.547923  0.669038  4.032658
N    -2.236550  3.315744  0.889510
C    -1.725812  4.662269  0.644648
H    -3.197999  3.128844  0.602234
H    -2.498295  5.388800  0.920783
H    -0.814758  4.820726  1.227575
H    -1.492709  4.785358  -0.423880
Hg    1.345654  1.458491  3.096717
