27
Energy: -568996.818931 eV PBE+vdW (tier 2 basis)
C    0.201694  -0.204523  0.127026
C    -0.122655  -0.686511  1.498368
O    0.267585  -1.821395  1.929950
H    1.107446  0.423549  0.178797
H    -0.589541  0.407739  -0.319973
H    0.391670  -1.059844  -0.528533
N    -0.901297  0.028425  2.351746
C    -1.664937  1.209780  2.008250
C    -0.754854  2.465999  1.632419
O    0.443945  2.481350  1.831056
H    -2.247272  1.028524  1.084682
C    -2.565960  1.483941  3.234001
C    -2.599513  0.145359  3.982327
C    -1.200793  -0.413767  3.737954
H    -3.557880  1.842300  2.938522
H    -2.100611  2.257886  3.862254
H    -3.357858  -0.529376  3.563288
H    -2.808603  0.268864  5.049811
H    -1.111569  -1.497699  3.824034
H    -0.450373  0.061519  4.396393
N    -1.477619  3.497089  1.123174
C    -0.927697  4.837186  0.999694
H    -2.489297  3.394996  1.052460
H    -1.040660  5.410760  1.935696
H    0.140455  4.767035  0.764108
H    -1.483185  5.364416  0.213625
Hg    2.372307  -2.669790  1.702186
