29
Energy: -244836.362851 eV PBE+vdW (tier 2 basis)
C    0.383766  1.795558  1.563768
C    0.062505  0.371132  1.887140
O    0.981712  -0.500321  1.951969
H    -0.501158  2.434458  1.477031
H    0.958261  1.843771  0.630144
H    1.031715  2.192899  2.358319
N    -1.218139  0.049622  2.118775
C    -1.735701  -1.237073  2.623210
C    -1.857782  -2.231656  1.446463
O    -0.778185  -2.733215  0.977713
H    -1.900472  0.799967  2.033592
H    -0.958062  -1.657953  3.280062
C    -2.989574  -0.923361  3.457895
C    -3.667148  -2.103414  4.182408
C    -5.013187  -2.467224  3.583757
O    -5.304536  -2.297108  2.403691
O    -5.837864  -3.000192  4.478500
H    -3.730912  -0.413123  2.823297
H    -2.673210  -0.189024  4.210350
H    -3.808490  -1.879664  5.245793
H    -3.052619  -3.018536  4.158011
N    -3.034577  -2.519847  0.944876
C    -3.229215  -3.432233  -0.182234
H    -3.903185  -2.207974  1.441613
H    -4.304212  -3.571618  -0.322032
H    -2.757872  -4.402403  0.016843
H    -2.798581  -3.008033  -1.097455
H    -6.680968  -3.238597  4.038867
Ba    1.634690  -2.655842  1.049637
