29
Energy: -244835.854447 eV PBE+vdW (tier 2 basis)
C    0.712698  2.197273  1.766697
C    0.189405  0.847690  2.143097
O    0.917219  0.045780  2.830990
H    1.616915  2.072055  1.155000
H    -0.013760  2.793569  1.205926
H    1.004566  2.746495  2.671541
N    -1.027958  0.514583  1.748529
C    -1.704108  -0.776397  1.837405
C    -2.478291  -0.854185  0.478891
O    -2.752666  0.210260  -0.075004
H    -1.541803  1.120881  1.083641
H    -0.958775  -1.576561  1.939211
C    -2.754114  -0.811157  2.972358
C    -2.218123  -0.707659  4.422012
C    -1.479560  -1.938935  4.875941
O    -0.239860  -2.011133  4.918692
O    -2.152079  -3.023490  5.216547
H    -3.362661  -1.719564  2.857214
H    -3.442261  0.031487  2.818010
H    -3.074085  -0.536068  5.092299
H    -1.549857  0.155219  4.524981
N    -2.849765  -2.062793  0.017527
C    -2.472191  -3.377778  0.522478
H    -3.380024  -2.022297  -0.850600
H    -2.976455  -4.134063  -0.085744
H    -1.390237  -3.555279  0.442621
H    -2.793637  -3.532403  1.561841
H    -3.119190  -2.883310  5.216466
Ba    2.077336  -1.322103  4.374184
