29
Energy: -244835.975762 eV PBE+vdW (tier 2 basis)
C    -0.986487  -0.475650  -0.150607
C    -0.644092  0.478654  0.950055
O    0.472034  1.080792  0.947743
H    -0.835715  0.008760  -1.123318
H    -2.008098  -0.865373  -0.094422
H    -0.283901  -1.320696  -0.102704
N    -1.550966  0.657366  1.922295
C    -1.429783  1.340735  3.224821
C    -1.390772  2.876099  3.121548
O    -0.552698  3.472900  2.375610
H    -2.408760  0.124041  1.809233
H    -2.368218  1.080593  3.731197
C    -0.275591  0.799664  4.100940
C    -0.405338  1.212225  5.579808
C    -1.696129  0.677849  6.179663
O    -1.892832  -0.464940  6.496737
O    -2.664919  1.658954  6.262848
H    0.697502  1.127737  3.710889
H    -0.292927  -0.296802  4.030280
H    -0.340436  2.299899  5.710765
H    0.420189  0.756597  6.140126
N    -2.234829  3.530380  3.901496
C    -2.317533  4.983381  4.031225
H    -2.789596  2.974324  4.558157
H    -3.371183  5.283064  4.017279
H    -1.792163  5.455916  3.198662
H    -1.870789  5.304161  4.981418
H    -3.440847  1.250543  6.701445
Ba    1.446643  3.282605  1.006963
