29
Energy: -244836.148855 eV PBE+vdW (tier 2 basis)
C    -1.053772  0.890494  1.000488
C    -0.717012  0.491317  2.397943
O    0.340761  0.931380  2.968276
H    -1.171516  1.982410  0.960024
H    -1.971240  0.417521  0.636701
H    -0.219700  0.634579  0.333720
N    -1.540703  -0.326139  3.050500
C    -1.330966  -0.674081  4.452789
C    -0.075053  -1.557015  4.635559
O    0.898222  -1.040600  5.277752
H    -2.424641  -0.697420  2.627253
H    -1.028448  0.252891  4.962756
C    -2.628137  -1.080447  5.193987
C    -3.466644  -2.314667  4.834200
C    -4.168189  -2.289859  3.491775
O    -3.811294  -1.634650  2.513338
O    -5.226603  -3.093715  3.474357
H    -3.275730  -0.192143  5.148649
H    -2.346524  -1.181675  6.251851
H    -4.239316  -2.430579  5.606810
H    -2.888570  -3.248611  4.889037
N    0.060423  -2.776354  4.128722
C    -0.794618  -3.546894  3.225472
H    0.947807  -3.216488  4.375789
H    -1.243215  -4.398982  3.750403
H    -0.173749  -3.934781  2.409190
H    -1.574912  -2.919453  2.792403
H    -5.639686  -3.066065  2.585876
Ba    2.090351  1.020025  4.627756
