29
Energy: -244835.913605 eV PBE+vdW (tier 2 basis)
C    -1.069175  1.628008  1.025011
C    -0.263877  0.625991  1.788210
O    0.859706  0.937535  2.287139
H    -0.380399  2.325263  0.535099
H    -1.696593  2.217676  1.712099
H    -1.721718  1.167754  0.275751
N    -0.735091  -0.630393  1.968284
C    -2.124710  -0.912059  2.314964
C    -2.383191  -0.359497  3.753611
O    -1.427834  0.181055  4.414030
H    -0.055046  -1.264730  2.389117
H    -2.768620  -0.326983  1.643234
C    -2.450182  -2.424331  2.158543
C    -3.429019  -2.760213  1.032342
C    -4.839822  -2.269415  1.279101
O    -5.184933  -1.568895  2.228406
O    -5.681085  -2.681110  0.336174
H    -2.834314  -2.821666  3.106659
H    -1.510722  -2.959192  1.963352
H    -3.477215  -3.849721  0.889906
H    -3.092481  -2.364616  0.060906
N    -3.611237  -0.472967  4.197913
C    -4.100098  -0.034079  5.500418
H    -4.290165  -0.913495  3.533690
H    -4.596498  -0.873258  6.001783
H    -4.831055  0.773373  5.367357
H    -3.269293  0.319451  6.115181
H    -6.580648  -2.348217  0.536233
Ba    0.799017  1.123449  4.755096
