29
Energy: -244835.821324 eV PBE+vdW (tier 2 basis)
C    -0.107734  -0.323412  -0.672343
C    -0.489110  0.591793  0.453214
O    -0.105679  1.766953  0.519650
H    -0.608495  0.027855  -1.585791
H    -0.379501  -1.371525  -0.503892
H    0.971067  -0.246131  -0.849297
N    -1.298787  0.068357  1.437304
C    -2.024480  0.907413  2.394691
C    -1.128011  1.479473  3.527112
O    -1.489811  1.416307  4.758497
H    -1.612969  -0.887521  1.312483
H    -2.369551  1.802986  1.845194
C    -3.275517  0.194992  2.919665
C    -3.041509  -1.192920  3.583786
C    -3.875587  -1.385743  4.828922
O    -3.770676  -0.624977  5.806270
O    -4.733197  -2.377714  4.927546
H    -3.976802  0.077279  2.083775
H    -3.769113  0.870019  3.629209
H    -1.996782  -1.290867  3.918402
H    -3.220893  -2.008106  2.871018
N    -0.030630  2.085062  3.147429
C    0.922742  2.728481  4.042975
H    0.098131  2.128725  2.097564
H    1.787719  3.044853  3.454209
H    1.258465  2.030586  4.819892
H    0.477947  3.614118  4.516712
H    -4.767447  -2.933770  4.125054
Ba    -2.552994  1.257829  6.875016
