29
Energy: -244836.356908 eV PBE+vdW (tier 2 basis)
C    0.228013  0.007394  0.478110
C    0.034862  0.256477  1.938013
O    1.000778  0.521666  2.700370
H    1.193511  -0.492497  0.337948
H    0.284823  0.965701  -0.061065
H    -0.568878  -0.599855  0.036421
N    -1.217950  0.213714  2.478177
C    -2.407402  0.764872  1.842330
C    -2.125033  2.227601  1.390771
O    -1.202431  2.894390  1.930269
H    -1.210351  0.265295  3.494920
H    -2.653246  0.165097  0.952652
C    -3.624272  0.679878  2.798942
C    -3.772587  1.735810  3.927105
C    -2.771730  1.669600  5.064599
O    -1.570011  1.936012  4.915302
O    -3.169178  1.322932  6.273763
H    -3.651440  -0.337935  3.214270
H    -4.531065  0.770819  2.187266
H    -4.792558  1.644404  4.323654
H    -3.696380  2.750785  3.507519
N    -2.912713  2.714592  0.438134
C    -2.845060  4.069916  -0.111162
H    -3.601163  2.087583  0.027977
H    -3.820600  4.559738  -0.010231
H    -2.575337  4.027709  -1.173403
H    -2.089565  4.638565  0.435079
H    -4.126789  1.136343  6.323314
Ba    0.574535  2.787015  3.777941
