29
Energy: -244836.086709 eV PBE+vdW (tier 2 basis)
C    -0.848539  2.059879  2.519460
C    -0.027121  1.002193  1.877100
O    1.214765  1.358999  1.628961
H    -1.387722  1.678350  3.395030
H    -1.585886  2.451429  1.802270
H    -0.200572  2.886197  2.825771
N    -0.450094  -0.195996  1.557018
C    -1.826969  -0.694880  1.651446
C    -1.898125  -1.889867  2.629918
O    -1.063378  -2.828824  2.605172
H    0.197180  -0.881969  1.064164
H    -2.452576  0.110026  2.052820
C    -2.383236  -1.087398  0.239218
C    -1.347633  -1.464333  -0.847871
C    -0.412430  -2.563136  -0.392735
O    -0.743784  -3.776113  -0.520549
O    0.670127  -2.231698  0.242802
H    -2.962468  -0.236456  -0.140718
H    -3.094870  -1.913875  0.369767
H    -0.762420  -0.585160  -1.147203
H    -1.902961  -1.810948  -1.727501
N    -2.930794  -1.885771  3.469447
C    -3.226715  -2.974129  4.403377
H    -3.576685  -1.102590  3.442944
H    -4.048465  -2.660511  5.052250
H    -2.346954  -3.193140  5.018590
H    -3.526539  -3.878974  3.859801
H    1.736264  0.682568  1.150319
Ba    0.522957  -4.503956  1.497465
