29
Energy: -244835.899281 eV PBE+vdW (tier 2 basis)
C    1.656631  -0.967074  1.629985
C    0.733156  -0.905719  2.801168
O    1.177331  -1.110938  3.990065
H    2.113629  -1.965208  1.583902
H    2.470938  -0.242983  1.766921
H    1.151101  -0.762702  0.681042
N    -0.545469  -0.642332  2.599663
C    -1.591624  -0.577850  3.614868
C    -2.899662  -0.763296  2.790640
O    -2.887910  -0.351675  1.631258
H    -0.926363  -0.467361  1.656808
H    -1.421116  -1.383563  4.340958
C    -1.579205  0.814511  4.302992
C    -2.361667  0.924884  5.612402
C    -1.732642  0.224167  6.790883
O    -0.588488  -0.259810  6.766824
O    -2.402829  0.123918  7.923103
H    -1.979264  1.548436  3.590477
H    -0.535097  1.104811  4.484081
H    -3.403825  0.585887  5.504454
H    -2.441157  1.989731  5.895182
N    -3.998394  -1.289595  3.375068
C    -4.135280  -2.044402  4.613940
H    -4.797252  -1.314691  2.741249
H    -4.385894  -3.092465  4.402428
H    -4.932417  -1.620987  5.239605
H    -3.201047  -2.033835  5.184200
H    -3.284716  0.544228  7.879812
Ba    1.693041  -1.149835  6.292758
