29
Energy: -244835.964245 eV PBE+vdW (tier 2 basis)
C    0.168023  -0.960970  0.556800
C    0.055885  -0.264255  1.880512
O    1.043110  0.201005  2.470893
H    0.721615  -0.317972  -0.138110
H    -0.795116  -1.236449  0.113794
H    0.768709  -1.870633  0.694835
N    -1.204482  -0.156847  2.417649
C    -1.514731  0.279109  3.781869
C    -1.219638  1.768513  4.060901
O    -2.132870  2.480139  4.618852
H    -1.975701  -0.532022  1.876439
H    -2.606537  0.198409  3.867508
C    -0.857484  -0.668014  4.824688
C    -1.097191  -0.332003  6.317216
C    -2.547163  -0.392596  6.725590
O    -3.265034  0.618724  6.814122
O    -3.120572  -1.556013  6.966483
H    0.228057  -0.672151  4.665591
H    -1.210621  -1.684480  4.599984
H    -0.719623  0.670167  6.555996
H    -0.516274  -1.043796  6.922179
N    -0.038348  2.241224  3.749442
C    0.386829  3.625050  3.927324
H    0.602532  1.532416  3.294350
H    0.764057  3.788184  4.946133
H    -0.445384  4.310258  3.734189
H    1.196783  3.830665  3.221574
H    -2.491942  -2.303170  6.925782
Ba    -3.874083  2.935197  6.170220
