29
Energy: -244836.618614 eV PBE+vdW (tier 2 basis)
C    0.798104  1.286099  -1.095513
C    0.007089  0.850038  0.103034
O    0.340585  -0.178407  0.743751
H    1.840559  1.457441  -0.796767
H    0.414611  2.189911  -1.580128
H    0.806876  0.465459  -1.825690
N    -1.059297  1.613054  0.429389
C    -2.103354  1.477716  1.461858
C    -1.574486  1.541772  2.907745
O    -0.504467  0.991437  3.272026
H    -1.197069  2.411623  -0.182645
H    -2.685014  2.400562  1.335250
C    -3.155994  0.364872  1.185192
C    -2.752933  -1.128522  1.136363
C    -2.518484  -1.769965  2.484584
O    -1.394132  -1.933944  2.966085
O    -3.557000  -2.162262  3.210151
H    -3.581764  0.603650  0.201256
H    -3.978198  0.507465  1.902370
H    -1.851598  -1.272531  0.532450
H    -3.569653  -1.664854  0.630143
N    -2.312011  2.216282  3.793802
C    -3.532927  3.002420  3.590471
H    -1.924515  2.209095  4.736380
H    -4.379708  2.374123  3.288648
H    -3.378322  3.800197  2.852742
H    -3.789074  3.475072  4.542629
H    -4.403822  -2.076175  2.732262
Ba    0.955386  -1.016195  2.997408
