29
Energy: -244836.028405 eV PBE+vdW (tier 2 basis)
C    0.613594  0.804323  0.349222
C    0.065734  1.001374  1.723955
O    0.554038  1.907300  2.493698
H    1.682126  0.558328  0.419244
H    0.532529  1.742879  -0.215313
H    0.100626  0.009689  -0.201472
N    -0.922823  0.229616  2.139262
C    -1.561942  0.250028  3.450178
C    -2.242259  -1.147677  3.538922
O    -2.620151  -1.668368  2.492097
H    -1.332206  -0.500388  1.535838
H    -0.789661  0.384070  4.222766
C    -2.625266  1.379661  3.515557
C    -3.098985  1.757859  4.919634
C    -2.118750  2.573677  5.725989
O    -1.050190  3.010536  5.266824
O    -2.394759  2.864868  6.983190
H    -3.493456  1.063920  2.921553
H    -2.223944  2.273011  3.017827
H    -3.392957  0.871076  5.505946
H    -4.020521  2.361419  4.845313
N    -2.430186  -1.662298  4.771518
C    -3.077821  -2.961300  4.976271
H    -1.909619  -1.268150  5.547500
H    -3.514940  -2.989827  5.979046
H    -2.359301  -3.784200  4.867721
H    -3.866904  -3.084556  4.228890
H    -3.258521  2.510618  7.274421
Ba    1.018947  3.639146  4.028866
