29
Energy: -244835.705892 eV PBE+vdW (tier 2 basis)
C    -0.559699  -0.145114  -0.473205
C    -1.068247  -0.249118  0.933164
O    -1.881166  -1.112485  1.294335
H    -1.408386  -0.170177  -1.166537
H    0.052007  -1.033692  -0.683744
H    0.044351  0.749581  -0.660095
N    -0.588915  0.664832  1.842752
C    -0.811437  0.501756  3.279587
C    -2.230724  0.988349  3.670277
O    -2.441597  1.967315  4.471363
H    0.038989  1.395860  1.523907
H    -0.821077  -0.586720  3.464649
C    0.368047  1.123043  4.041626
C    0.546307  0.691960  5.526942
C    -0.355178  1.438866  6.454072
O    -1.362183  0.990684  6.999670
O    -0.131294  2.766799  6.653460
H    0.347293  2.220158  3.952726
H    1.274823  0.787651  3.521384
H    1.591406  0.879197  5.817678
H    0.358378  -0.380493  5.655882
N    -3.208484  0.306611  3.115094
C    -4.624574  0.595661  3.282142
H    -2.886449  -0.438392  2.438598
H    -5.184788  0.046965  2.519814
H    -4.822331  1.668459  3.159808
H    -4.982006  0.258317  4.266752
H    0.695602  3.084348  6.241461
Ba    -3.150592  2.812634  6.603627
