29
Energy: -244835.81261 eV PBE+vdW (tier 2 basis)
C    0.885680  -0.139685  0.133094
C    0.274173  -0.127216  1.495522
O    0.988441  0.106632  2.527964
H    1.679387  -0.898906  0.102356
H    1.359849  0.831071  -0.064142
H    0.161941  -0.348889  -0.661493
N    -1.029150  -0.370989  1.623569
C    -1.749400  -0.405178  2.901895
C    -2.985574  -1.350597  2.797929
O    -4.107028  -0.889558  2.981148
H    -1.566634  -0.523210  0.772418
H    -1.046255  -0.819513  3.641100
C    -2.194986  1.010942  3.313224
C    -2.693150  1.124595  4.755345
C    -1.634132  1.023798  5.814729
O    -0.411203  1.023913  5.565571
O    -1.980121  0.945316  7.082912
H    -3.017012  1.314588  2.653593
H    -1.365864  1.712782  3.144605
H    -3.484485  0.381165  4.947212
H    -3.185817  2.102631  4.897902
N    -2.756674  -2.657364  2.517798
C    -1.494538  -3.362004  2.334313
H    -3.612788  -3.203466  2.440523
H    -1.635586  -4.411327  2.613193
H    -0.712738  -2.953835  2.987374
H    -1.142999  -3.331751  1.292736
H    -2.950549  0.949071  7.207815
Ba    1.850267  0.923971  4.612426
