29
Energy: -244836.904888 eV PBE+vdW (tier 2 basis)
C    -0.670731  0.372608  -0.225426
C    -0.328632  -0.031093  1.175568
O    0.729144  -0.666365  1.422458
H    -0.757864  -0.534638  -0.839272
H    0.155456  0.962633  -0.642824
H    -1.599280  0.947035  -0.306785
N    -1.204064  0.308635  2.147364
C    -1.160490  -0.050673  3.578154
C    -0.033253  0.720376  4.300869
O    1.181823  0.443910  4.141423
H    -2.024874  0.823456  1.843238
H    -2.109243  0.327562  3.982999
C    -1.169449  -1.589224  3.766676
C    -0.916711  -2.115958  5.186036
C    0.505777  -2.573072  5.450247
O    1.402169  -2.542154  4.603431
O    0.806666  -3.047964  6.648147
H    -0.455508  -2.055058  3.080270
H    -2.160609  -1.923685  3.435782
H    -1.563821  -2.988662  5.371130
H    -1.195612  -1.388124  5.965897
N    -0.421855  1.705726  5.109754
C    0.503145  2.567971  5.847517
H    -1.413374  1.912885  5.180961
H    -0.045369  3.059105  6.655882
H    0.930986  3.332399  5.186006
H    1.314369  1.966111  6.269276
H    0.038142  -3.079738  7.250503
Ba    2.668063  -1.154004  2.896718
