29
Energy: -244835.880696 eV PBE+vdW (tier 2 basis)
C    -0.299360  1.501040  0.503812
C    -1.031946  0.224931  0.779894
O    -1.322511  -0.555001  -0.173243
H    0.645456  1.270330  -0.006123
H    -0.087178  2.093013  1.399932
H    -0.897762  2.106636  -0.190868
N    -1.353982  -0.037106  2.057022
C    -2.117633  -1.143774  2.688251
C    -1.514065  -2.536065  2.425901
O    -1.539787  -3.089027  1.287105
H    -1.067271  0.682574  2.715077
H    -1.975311  -0.949303  3.759591
C    -3.648809  -1.079206  2.487241
C    -4.227322  -1.371300  1.104917
C    -5.735764  -1.120708  1.053666
O    -6.378938  -0.616969  1.937523
O    -6.223847  -1.541099  -0.139780
H    -3.974413  -0.076917  2.799310
H    -4.099095  -1.767329  3.217791
H    -4.083854  -2.429153  0.825653
H    -3.782582  -0.721752  0.334707
N    -1.007981  -3.166774  3.477830
C    -0.456876  -4.523005  3.439717
H    -0.995500  -2.682639  4.371042
H    0.537610  -4.522106  2.975609
H    -1.122396  -5.180255  2.870451
H    -0.372958  -4.892098  4.465328
H    -7.185655  -1.356101  -0.154154
Ba    -1.843617  -2.714184  -1.113523
