29
Energy: -244835.539054 eV PBE+vdW (tier 2 basis)
C    0.689536  -1.135499  -0.011024
C    0.330164  -0.110976  1.001858
O    1.073370  0.923792  1.157756
H    1.448714  -1.795165  0.441196
H    1.155997  -0.655498  -0.877739
H    -0.145977  -1.788159  -0.290323
N    -0.746994  -0.206464  1.795970
C    -1.999150  -0.998784  1.708250
C    -1.765184  -2.541357  1.688294
O    -1.483703  -3.099331  0.629647
H    -0.772436  0.525839  2.502834
H    -2.538855  -0.726452  2.625309
C    -2.862343  -0.609054  0.494551
C    -3.083732  0.911815  0.294830
C    -1.902179  1.644493  -0.276265
O    -1.294919  2.557534  0.304715
O    -1.435716  1.295569  -1.477081
H    -3.847120  -1.075369  0.632594
H    -2.441879  -1.088189  -0.402260
H    -3.372507  1.409396  1.228499
H    -3.922510  1.045170  -0.408319
N    -1.913362  -3.157067  2.877036
C    -1.766263  -4.600817  3.050959
H    -2.182287  -2.609022  3.687113
H    -0.996721  -4.815129  3.802095
H    -1.471728  -5.034258  2.091524
H    -2.716772  -5.044054  3.371968
H    -1.977683  0.602808  -1.904031
Ba    1.143389  3.233444  0.537793
