29
Energy: -244836.262825 eV PBE+vdW (tier 2 basis)
C    0.117626  -0.821692  -0.316595
C    0.063848  -0.409940  1.122130
O    1.136393  -0.247998  1.780513
H    0.570569  -1.822370  -0.371654
H    0.776321  -0.144591  -0.874620
H    -0.862800  -0.852211  -0.803094
N    -1.145525  -0.234927  1.674295
C    -1.524594  -0.032516  3.082225
C    -1.137230  1.331631  3.680483
O    -0.032798  1.912536  3.424791
H    -1.928441  -0.366292  1.040358
H    -2.619313  -0.028702  3.054251
C    -1.089868  -1.196563  4.025641
C    -2.197699  -2.225907  4.262964
C    -3.413397  -1.657630  4.974387
O    -3.634161  -0.462396  5.141095
O    -4.233314  -2.621235  5.388663
H    -0.780394  -0.778021  4.993395
H    -0.209579  -1.698779  3.605801
H    -1.816436  -3.067956  4.857073
H    -2.544115  -2.678855  3.319595
N    -2.019645  1.818244  4.531651
C    -1.864402  3.050039  5.298487
H    -2.810636  1.194537  4.759798
H    -2.841340  3.537492  5.380265
H    -1.166222  3.719097  4.789288
H    -1.495836  2.830756  6.309750
H    -5.013710  -2.215767  5.820778
Ba    2.291982  1.565982  2.892939
