29
Energy: -244836.26932 eV PBE+vdW (tier 2 basis)
C    0.345776  0.146950  -0.091920
C    0.195536  0.041934  1.394324
O    1.202729  -0.225284  2.117887
H    1.163276  0.836505  -0.336267
H    -0.565469  0.470428  -0.605525
H    0.636369  -0.841042  -0.478145
N    -1.028042  0.233409  1.908561
C    -1.547177  -0.004291  3.269084
C    -1.043304  1.002604  4.320584
O    0.189921  1.301608  4.440069
H    -1.746126  0.457398  1.225198
H    -2.623128  0.178244  3.169342
C    -1.384333  -1.477034  3.718415
C    -2.152481  -1.858567  5.001857
C    -3.633345  -1.518908  4.964009
O    -4.073669  -0.379008  4.839125
O    -4.407920  -2.594393  5.085485
H    -0.322961  -1.719860  3.864121
H    -1.732100  -2.103735  2.885009
H    -1.733422  -1.338598  5.876928
H    -2.028832  -2.932583  5.179000
N    -1.976959  1.489369  5.114167
C    -1.752957  2.414664  6.219586
H    -2.917073  1.062921  5.013713
H    -2.539794  3.176705  6.207238
H    -0.777350  2.894212  6.111719
H    -1.797611  1.881605  7.178689
H    -5.347935  -2.313982  5.082156
Ba    2.478196  0.743844  3.924886
