29
Energy: -244835.927949 eV PBE+vdW (tier 2 basis)
C    -0.449946  1.345122  0.765830
C    -0.098620  0.511826  1.953328
O    1.090949  0.554152  2.432236
H    0.145269  1.026934  -0.101351
H    -0.164838  2.384673  0.976906
H    -1.512221  1.313701  0.507378
N    -0.976110  -0.289436  2.539521
C    -2.280956  -0.793268  2.130009
C    -2.800238  -1.482063  3.431028
O    -1.960887  -1.836891  4.270955
H    -0.715488  -0.780369  3.417477
H    -2.949698  0.024383  1.827211
C    -2.163057  -1.820734  0.974373
C    -1.159248  -2.981719  1.233635
C    0.282362  -2.608558  1.004414
O    1.119769  -2.465186  1.907697
O    0.704928  -2.387213  -0.238629
H    -1.911805  -1.287834  0.044971
H    -3.152585  -2.266028  0.807371
H    -1.406483  -3.807794  0.549082
H    -1.254232  -3.363509  2.257120
N    -4.119764  -1.683486  3.516366
C    -4.766910  -2.353883  4.644864
H    -4.719258  -1.290683  2.796800
H    -5.395006  -1.644542  5.197195
H    -3.990811  -2.741931  5.309227
H    -5.388991  -3.180397  4.282654
H    0.023959  -2.595131  -0.907741
Ba    2.855059  -0.975663  2.965174
