29
Energy: -244835.735736 eV PBE+vdW (tier 2 basis)
C    0.049490  -1.552972  1.389581
C    -0.152684  -0.518193  2.448564
O    0.580031  -0.548775  3.504271
H    -0.610689  -1.438113  0.525788
H    -0.063720  -2.559641  1.813507
H    1.091146  -1.479114  1.045223
N    -1.062495  0.436220  2.348116
C    -2.240304  0.602812  1.505157
C    -2.454374  2.150372  1.531334
O    -2.059754  2.753885  2.535936
H    -1.036377  1.239775  3.005225
H    -2.061698  0.223742  0.490600
C    -3.489612  -0.049724  2.155337
C    -3.464168  -1.566040  2.387688
C    -2.713849  -2.090092  3.590520
O    -2.199191  -1.392976  4.475475
O    -2.591086  -3.407948  3.720953
H    -4.345616  0.167686  1.502035
H    -3.694325  0.466239  3.104121
H    -3.100609  -2.110630  1.500257
H    -4.504968  -1.912394  2.520702
N    -3.094939  2.693800  0.489841
C    -3.424971  4.116486  0.397317
H    -3.325049  2.102999  -0.302997
H    -2.874572  4.580329  -0.430043
H    -3.140837  4.598599  1.336112
H    -4.501208  4.241667  0.231244
H    -3.056149  -3.903640  3.018307
Ba    -0.071904  -0.874106  5.780756
