29
Energy: -244836.633098 eV PBE+vdW (tier 2 basis)
C    -3.855429  -0.516521  -0.199468
C    -2.896990  -0.386794  0.937477
O    -1.664905  -0.610638  0.791031
H    -4.886811  -0.266191  0.069673
H    -3.822287  -1.546123  -0.580867
H    -3.526451  0.136649  -1.018831
N    -3.380311  -0.013504  2.149888
C    -2.456726  0.171570  3.259729
C    -2.110822  -1.160082  3.965210
O    -0.960560  -1.641227  3.745295
H    -4.372556  0.183358  2.242511
H    -1.526106  0.416708  2.747701
C    -2.677875  1.386664  4.168204
C    -1.378015  1.738304  4.939747
C    -0.193535  2.102402  4.067529
O    0.366900  1.336330  3.262207
O    0.211226  3.344595  4.251590
H    -3.475153  1.238518  4.906547
H    -2.979102  2.236762  3.539349
H    -1.062645  0.884931  5.560862
H    -1.577175  2.574900  5.617529
N    -2.966776  -1.794417  4.757899
C    -4.338097  -1.449920  5.128434
H    -2.599193  -2.662838  5.149640
H    -4.977802  -2.329510  4.992515
H    -4.727035  -0.645017  4.501243
H    -4.385817  -1.138908  6.179862
H    0.993686  3.541240  3.693363
Ba    0.601361  -0.922243  1.900131
