27
Energy: -170729.609308 eV PBE+vdW (tier 2 basis)
C    0.117849  -0.891937  1.066777
C    -0.687094  -0.108181  2.053547
O    -0.505188  -0.066706  3.262837
H    0.633389  -1.705050  1.586307
H    0.883267  -0.236779  0.622553
H    -0.495986  -1.293197  0.250113
N    -1.751646  0.664003  1.542256
C    -2.391768  1.554109  2.447611
C    -3.007520  0.868954  3.706073
O    -2.997946  1.519806  4.814688
H    -1.841551  0.805552  0.537766
H    -1.584132  2.184238  2.921387
C    -3.339192  2.549948  1.733293
O    -3.583527  3.626168  2.718367
C    -4.661657  1.999177  1.238099
H    -2.760519  2.991652  0.906893
H    -4.074342  4.360257  2.303739
H    -5.245374  2.784550  0.740602
H    -5.264681  1.574235  2.049678
H    -4.481095  1.222697  0.480976
N    -3.608378  -0.303063  3.700420
C    -3.777570  -1.305582  2.643219
H    -3.930907  -0.589681  4.627477
H    -4.707809  -1.845120  2.848832
H    -2.942294  -2.017844  2.663635
H    -3.850292  -0.845225  1.657837
Cd    -2.389037  3.547019  4.657018
