27
Energy: -170729.927333 eV PBE+vdW (tier 2 basis)
C    -0.792735  0.147149  -0.393342
C    -0.742049  0.475685  1.062049
O    0.100910  1.398497  1.402681
H    -1.011743  1.055158  -0.970349
H    -1.528911  -0.631962  -0.618649
H    0.204176  -0.197217  -0.706771
N    -1.527140  -0.189211  1.897650
C    -1.524005  -0.345014  3.359382
C    -1.983538  -1.858683  3.512569
O    -2.777473  -2.271540  2.670329
H    -2.155689  -0.909528  1.496928
H    -0.505491  -0.232915  3.768435
C    -2.519543  0.586306  4.091130
O    -1.796425  1.898830  4.344121
C    -3.035462  0.109569  5.430726
H    -3.347173  0.820585  3.407861
H    -2.348250  2.467342  4.916588
H    -3.687789  0.869517  5.883619
H    -2.230090  -0.129371  6.135844
H    -3.662398  -0.780906  5.285568
N    -1.466798  -2.552710  4.529104
C    -1.844531  -3.941454  4.817197
H    -0.800723  -2.105546  5.150796
H    -2.562270  -3.982984  5.646402
H    -0.945669  -4.505493  5.087179
H    -2.300516  -4.374745  3.922698
Cd    -0.152090  2.564785  3.101656
