27
Energy: -170730.411561 eV PBE+vdW (tier 2 basis)
C    -0.342753  -1.639199  0.161518
C    -0.641008  -1.116919  1.531184
O    -0.396878  -1.900874  2.505581
H    -0.603127  -0.940315  -0.640229
H    -0.892641  -2.579509  0.016125
H    0.726531  -1.885276  0.100922
N    -1.142099  0.128895  1.621696
C    -1.671230  0.979352  2.716123
C    -0.631134  1.463717  3.744554
O    -0.028572  0.692723  4.576612
H    -1.230967  0.575931  0.712514
H    -1.993434  1.882263  2.183857
C    -3.013558  0.503642  3.376132
O    -3.352516  1.617113  4.179583
C    -3.043729  -0.797805  4.193140
H    -3.716355  0.372513  2.533913
H    -4.310777  1.650861  4.341140
H    -4.065764  -0.993681  4.552661
H    -2.484269  -0.682095  5.153588
H    -2.778970  -1.691644  3.605140
N    -0.377807  2.755718  3.780721
C    0.534712  3.398394  4.732837
H    -0.907934  3.364562  3.162003
H    0.853493  4.355542  4.311059
H    1.404895  2.757562  4.901310
H    0.019503  3.573017  5.686542
Cd    -0.393215  -1.384749  4.554728
