27
Energy: -170731.066029 eV PBE+vdW (tier 2 basis)
C    -0.225576  -0.193932  0.098673
C    -0.067253  -0.027702  1.577080
O    1.042220  0.407263  2.003114
H    -1.216693  -0.550305  -0.200993
H    0.538637  -0.896625  -0.261096
H    -0.022967  0.770089  -0.387859
N    -1.133070  -0.342920  2.348200
C    -1.349086  -0.300320  3.809802
C    -1.148236  1.107015  4.420065
O    -0.020799  1.519986  4.855263
H    -1.932166  -0.681818  1.819913
H    -2.420449  -0.512736  3.918490
C    -0.699624  -1.447673  4.634211
O    0.765132  -1.429361  4.463149
C    -1.223756  -2.817316  4.247074
H    -0.915659  -1.231678  5.693070
H    1.145607  -2.229729  4.869572
H    -0.755217  -3.595968  4.864739
H    -1.029471  -3.047759  3.192156
H    -2.303821  -2.883407  4.436253
N    -2.199688  1.900144  4.545949
C    -3.602289  1.649083  4.189120
H    -1.987503  2.803324  4.975154
H    -4.044794  0.876012  4.830715
H    -3.700134  1.377362  3.131612
H    -4.156994  2.577851  4.349285
Cd    1.713648  0.561117  4.033287
