27
Energy: -170731.173222 eV PBE+vdW (tier 2 basis)
C    -0.053152  -0.851175  -0.274093
C    0.078957  -0.542813  1.184791
O    1.246017  -0.552138  1.675692
H    0.534556  -0.117897  -0.843549
H    -1.087284  -0.845931  -0.634033
H    0.395216  -1.835275  -0.467489
N    -1.062178  -0.272450  1.857426
C    -1.371574  0.035699  3.275055
C    -0.775921  1.375784  3.765351
O    0.455754  1.538610  4.052050
H    -1.888098  -0.308858  1.266491
H    -2.459971  0.181865  3.263330
C    -1.219704  -1.133428  4.289812
O    0.199006  -1.497161  4.451696
C    -2.016692  -2.363176  3.900381
H    -1.564522  -0.735451  5.258209
H    0.267530  -2.293579  5.008997
H    -1.912852  -3.143596  4.666633
H    -1.691034  -2.775049  2.937391
H    -3.088058  -2.126679  3.844297
N    -1.610655  2.390040  3.915892
C    -1.199520  3.717551  4.393483
H    -2.592604  2.255996  3.690736
H    -0.772382  3.639620  5.400196
H    -2.082447  4.360676  4.418226
H    -0.450120  4.145123  3.717105
Cd    1.786990  -0.102537  3.690829
