27
Energy: -170729.767762 eV PBE+vdW (tier 2 basis)
C    0.105634  1.074188  0.047430
C    -0.061133  0.375401  1.360866
O    0.497301  0.765826  2.399653
H    -0.443511  2.026329  0.094569
H    -0.270385  0.491621  -0.801429
H    1.163467  1.317988  -0.102680
N    -0.867032  -0.735373  1.401604
C    -1.333769  -1.317764  2.657078
C    -0.261113  -2.212852  3.344368
O    -0.440156  -3.444058  3.708540
H    -1.230012  -1.094642  0.524534
H    -1.483974  -0.479918  3.360084
C    -2.727487  -1.944900  2.410163
O    -3.259569  -2.329944  3.747978
C    -2.818250  -3.103040  1.430708
H    -3.375915  -1.122026  2.075435
H    -4.226235  -2.197850  3.769335
H    -3.848869  -3.476650  1.374496
H    -2.135394  -3.930383  1.674734
H    -2.563361  -2.784179  0.409825
N    0.898045  -1.636184  3.545665
C    2.057857  -2.220965  4.211022
H    0.958071  -0.645907  3.188579
H    2.761787  -2.603161  3.458139
H    1.754871  -3.039285  4.868838
H    2.557908  -1.431529  4.782958
Cd    -2.226235  -4.133176  4.595849
