27
Energy: -170731.175902 eV PBE+vdW (tier 2 basis)
C    -0.156668  -0.441611  0.301287
C    -0.208935  0.178963  1.661611
O    0.830687  0.779156  2.069820
H    0.011229  0.350768  -0.441659
H    -1.059111  -1.002829  0.037738
H    0.714620  -1.108994  0.252833
N    -1.358685  0.043315  2.356077
C    -1.775342  0.404065  3.734392
C    -2.057743  1.914459  3.897555
O    -1.153073  2.801779  3.758299
H    -2.076228  -0.461957  1.843187
H    -2.741759  -0.108240  3.833707
C    -0.966989  -0.217988  4.911951
O    0.239575  0.577778  5.207998
C    -0.613441  -1.676092  4.701358
H    -1.616372  -0.099469  5.794250
H    0.780124  0.103856  5.866087
H    -0.146525  -2.087068  5.606748
H    0.074028  -1.818075  3.858765
H    -1.518703  -2.271770  4.520950
N    -3.295869  2.271230  4.195414
C    -3.734122  3.654283  4.416825
H    -4.012532  1.550401  4.234788
H    -2.887749  4.254703  4.759707
H    -4.524884  3.651745  5.173300
H    -4.125867  4.077369  3.482710
Cd    0.886275  2.132469  3.715919
