27
Energy: -170729.791479 eV PBE+vdW (tier 2 basis)
C    -0.484844  -0.463522  -0.016420
C    -0.553586  0.300262  1.274331
O    0.077478  1.329933  1.498645
H    -0.287363  0.233464  -0.837186
H    -1.394490  -1.040732  -0.222166
H    0.364325  -1.161833  0.035771
N    -1.401027  -0.205776  2.257495
C    -1.444129  0.297627  3.619247
C    -1.979135  1.743253  3.724410
O    -1.862731  2.450731  4.794776
H    -1.875313  -1.086223  2.073271
H    -2.212304  -0.308166  4.129480
C    -0.121148  -0.003379  4.402980
O    -0.550393  -0.179069  5.837109
C    1.050138  0.950318  4.313533
H    0.186277  -1.011383  4.088001
H    0.072677  -0.778185  6.294592
H    0.789969  1.983412  4.596457
H    1.412631  1.017346  3.279634
H    1.879341  0.594058  4.939208
N    -2.652101  2.235255  2.712007
C    -3.287846  3.554213  2.663525
H    -2.670298  1.663546  1.868149
H    -3.601523  3.852964  3.667089
H    -4.157631  3.493458  2.002551
H    -2.580887  4.293753  2.264678
Cd    -1.115092  1.803674  6.671832
