28
Energy: -19698.0999018 eV PBE+vdW (tier 2 basis)
C    0.070976  -0.667873  1.338688
C    -0.373705  -0.575766  2.784582
O    0.277176  -1.080125  3.695713
H    1.141440  -0.890815  1.335421
H    -0.111914  0.239379  0.750882
H    -0.455247  -1.503274  0.855615
N    -1.564496  0.057837  3.069008
C    -2.526339  0.725984  2.197413
C    -2.797066  2.131373  2.790202
O    -3.785480  2.352034  3.486618
H    -1.809991  0.008206  4.056119
H    -2.061186  0.825707  1.207600
C    -3.851486  -0.036625  2.058527
C    -3.719976  -1.410636  1.391956
C    -2.992427  -2.483164  2.174336
O    -2.148528  -3.226140  1.715973
O    -3.423190  -2.571094  3.463645
H    -4.534741  0.581668  1.458756
H    -4.319393  -0.126558  3.046757
H    -3.225100  -1.344367  0.414518
H    -4.733166  -1.802437  1.207674
N    -1.873269  3.105170  2.536950
C    -0.602025  2.990583  1.842403
H    -2.069700  3.972481  3.027070
H    -0.173715  3.993179  1.740619
H    -0.728844  2.587832  0.828007
H    0.119514  2.361763  2.384394
H    -2.891445  -3.281363  3.872944
