28
Energy: -19698.038174 eV PBE+vdW (tier 2 basis)
C    0.101706  -0.292906  0.200965
C    0.105655  0.019954  1.681777
O    1.148417  0.164603  2.311816
H    -0.571791  0.367680  -0.361968
H    1.123210  -0.168018  -0.167560
H    -0.214617  -1.329208  0.018459
N    -1.107434  0.121037  2.346991
C    -2.463231  0.273245  1.809862
C    -3.472279  0.550361  2.942820
O    -4.480339  1.212812  2.721623
H    -0.959118  0.521875  3.270766
H    -2.536370  1.163859  1.164796
C    -2.970392  -0.931302  0.979014
C    -2.841450  -2.290379  1.686084
C    -3.115544  -3.448206  0.756800
O    -4.041943  -4.224821  0.837793
O    -2.170155  -3.532615  -0.229443
H    -2.431121  -0.963848  0.026092
H    -4.022444  -0.727677  0.735436
H    -3.544650  -2.376483  2.521834
H    -1.818659  -2.401517  2.078332
N    -3.183092  -0.005005  4.156593
C    -4.084749  0.101040  5.290480
H    -2.398648  -0.645141  4.217879
H    -4.776905  0.925604  5.092664
H    -4.671395  -0.818909  5.430741
H    -3.520711  0.308725  6.207994
H    -2.429164  -4.294006  -0.783683
