28
Energy: -19698.1702604 eV PBE+vdW (tier 2 basis)
C    -0.276257  0.410168  -0.219051
C    -0.024300  0.874852  1.206047
O    0.890047  1.643156  1.487431
H    0.504264  0.837246  -0.853700
H    -1.255010  0.755353  -0.583120
H    -0.253925  -0.684150  -0.312494
N    -0.876415  0.411708  2.179045
C    -2.012577  -0.474351  2.037236
C    -2.990161  -0.137891  3.172568
O    -2.573847  0.318975  4.247727
H    -0.742364  0.802869  3.110818
H    -2.503615  -0.295344  1.068410
C    -1.627549  -1.981651  2.106748
C    -1.171865  -2.480225  3.494067
C    -2.324275  -3.014253  4.347236
O    -2.842984  -4.088204  4.133403
O    -2.753569  -2.243250  5.379190
H    -0.810924  -2.131389  1.388237
H    -2.467839  -2.599902  1.756446
H    -0.596517  -1.701994  4.014604
H    -0.503002  -3.337944  3.352183
N    -4.282718  -0.455598  2.952394
C    -5.301038  -0.399345  3.991689
H    -4.525947  -0.875489  2.062352
H    -6.264793  -0.129391  3.546408
H    -5.010502  0.363583  4.720333
H    -5.390686  -1.363702  4.511338
H    -2.407780  -1.327251  5.286040
