28
Energy: -19697.8597237 eV PBE+vdW (tier 2 basis)
C    -0.536917  1.142889  0.630468
C    -0.105785  0.001825  1.532872
O    1.064138  -0.167074  1.864203
H    -1.098613  0.795340  -0.247121
H    0.363753  1.663970  0.296491
H    -1.175974  1.853635  1.173845
N    -1.085707  -0.854538  1.984064
C    -2.526789  -0.756313  1.764758
C    -3.301407  -1.112667  3.050040
O    -4.093562  -0.303540  3.525919
H    -0.737067  -1.524431  2.662428
H    -2.776039  0.303471  1.626219
C    -3.001676  -1.511234  0.497805
C    -4.396495  -1.103810  0.009777
C    -5.605179  -1.586951  0.784720
O    -6.672271  -1.018830  0.825858
O    -5.393988  -2.793388  1.397077
H    -2.947641  -2.597724  0.637115
H    -2.280762  -1.270689  -0.296662
H    -4.539877  -1.488733  -1.013226
H    -4.493396  -0.012344  -0.061300
N    -3.052882  -2.306959  3.677807
C    -2.494583  -3.541268  3.142453
H    -3.633694  -2.406294  4.506752
H    -2.072142  -4.128955  3.966372
H    -1.684507  -3.344062  2.433285
H    -3.254814  -4.147945  2.625880
H    -6.239880  -3.006394  1.837176
