28
Energy: -19697.9522018 eV PBE+vdW (tier 2 basis)
C    -1.167079  -1.438197  1.447441
C    -1.330498  -0.732753  2.778929
O    -0.794389  -1.149060  3.801995
H    -0.199115  -1.947458  1.457339
H    -1.232820  -0.785099  0.570481
H    -1.949944  -2.204059  1.349653
N    -2.148365  0.376120  2.841479
C    -2.839539  1.099042  1.776627
C    -3.701416  0.185010  0.879249
O    -3.668345  0.270213  -0.357144
H    -2.181165  0.778188  3.774000
H    -3.571460  1.744801  2.293931
C    -1.869460  2.027462  1.012185
C    -2.451249  2.954281  -0.079510
C    -3.798325  3.554075  0.301812
O    -3.933605  4.554684  0.969671
O    -4.887986  2.862407  -0.135757
H    -1.071929  1.422437  0.560782
H    -1.393241  2.645597  1.785665
H    -2.534452  2.404510  -1.023269
H    -1.758596  3.791854  -0.225001
N    -4.546927  -0.686396  1.485358
C    -4.860500  -0.851790  2.898433
H    -5.091797  -1.223647  0.817356
H    -5.834831  -1.346709  2.973643
H    -4.942610  0.117864  3.405232
H    -4.114546  -1.461002  3.425884
H    -4.581806  2.030657  -0.562335
