28
Energy: -19697.9899511 eV PBE+vdW (tier 2 basis)
C    -0.638126  0.175870  -0.338599
C    -0.610932  -0.444432  1.048872
O    0.035249  -1.465604  1.280828
H    0.394463  0.361192  -0.658401
H    -1.207646  1.110990  -0.405890
H    -1.069313  -0.552285  -1.037173
N    -1.355722  0.222708  1.984938
C    -1.612548  -0.088072  3.397824
C    -0.883355  0.849181  4.396376
O    -1.554923  1.424696  5.253969
H    -1.824724  1.058782  1.656807
H    -2.662385  0.192531  3.566525
C    -1.478054  -1.559606  3.825212
C    -2.430279  -2.486172  3.062962
C    -2.544353  -3.890421  3.609407
O    -3.543787  -4.576770  3.563145
O    -1.374417  -4.339978  4.149290
H    -1.724834  -1.574472  4.897115
H    -0.449967  -1.918585  3.722140
H    -2.085169  -2.589757  2.021837
H    -3.450540  -2.082024  3.027840
N    0.468399  1.007400  4.338688
C    1.452895  0.445879  3.428858
H    0.801031  1.662609  5.040521
H    2.387684  0.275703  3.976970
H    1.664866  1.119686  2.583342
H    1.123203  -0.513784  3.018873
H    -1.554683  -5.255638  4.438256
