28
Energy: -19698.0107343 eV PBE+vdW (tier 2 basis)
C    -0.655117  0.129124  0.232036
C    -0.345575  -0.003279  1.713999
O    0.788601  -0.272930  2.110103
H    0.103861  0.771703  -0.228592
H    -1.651599  0.532994  0.014492
H    -0.570596  -0.862820  -0.231105
N    -1.421062  0.192327  2.537832
C    -1.544686  0.032813  3.991939
C    -1.642798  1.364639  4.783659
O    -2.593445  1.514480  5.552322
H    -2.296938  0.395435  2.071424
H    -2.553327  -0.375190  4.148299
C    -0.559817  -0.939944  4.663687
C    -0.620706  -2.379608  4.118735
C    -1.982698  -3.003603  4.312592
O    -2.442105  -3.385315  5.367727
O    -2.689748  -3.075336  3.141573
H    -0.822681  -0.948491  5.731163
H    0.471863  -0.585924  4.573061
H    0.094837  -2.989977  4.684819
H    -0.331142  -2.404644  3.063151
N    -0.689024  2.328417  4.652027
C    0.491717  2.391741  3.807589
H    -0.903940  3.146310  5.215529
H    1.284210  2.929525  4.342647
H    0.293350  2.918959  2.860704
H    0.866494  1.393185  3.561987
H    -3.549086  -3.476024  3.380562
