28
Energy: -19698.3114198 eV PBE+vdW (tier 2 basis)
C    0.084581  0.124396  0.060040
C    0.115703  0.270516  1.567670
O    1.159047  0.309291  2.212469
H    1.115331  0.115404  -0.302597
H    -0.465379  0.946587  -0.417861
H    -0.408150  -0.812445  -0.236991
N    -1.103877  0.368300  2.207880
C    -2.433802  0.278151  1.621208
C    -2.883415  1.540110  0.851001
O    -3.746611  1.449395  -0.023355
H    -1.027604  0.384832  3.221978
H    -2.463595  -0.527476  0.871627
C    -3.426907  -0.073732  2.750389
C    -4.900283  -0.121411  2.347252
C    -5.575313  1.234670  2.358911
O    -5.150202  2.235712  2.900529
O    -6.772528  1.193917  1.720759
H    -3.312417  0.661506  3.562366
H    -3.127999  -1.053911  3.147979
H    -5.457411  -0.745850  3.063826
H    -5.051491  -0.577728  1.360525
N    -2.288601  2.698188  1.222996
C    -2.714630  3.990836  0.724581
H    -1.611635  2.649838  1.976762
H    -3.271672  3.828133  -0.204133
H    -1.845150  4.627960  0.521083
H    -3.375574  4.496732  1.443789
H    -7.144169  2.094862  1.785156
