28
Energy: -19698.3772516 eV PBE+vdW (tier 2 basis)
C    -0.710856  -3.579694  2.400467
C    -0.560764  -2.376082  3.306014
O    -0.295318  -2.492153  4.508544
H    -0.935781  -3.323245  1.358216
H    -1.509443  -4.221298  2.793053
H    0.219730  -4.159847  2.432429
N    -0.730281  -1.159454  2.715901
C    -0.583029  0.104166  3.437956
C    -1.896815  0.460060  4.186931
O    -2.652830  1.350985  3.802007
H    -1.036446  -1.116317  1.750157
H    0.199832  -0.069218  4.192828
C    -0.142790  1.200369  2.468233
C    0.051796  2.569869  3.139885
C    -1.015769  3.573550  2.754180
O    -1.536112  3.661942  1.663071
O    -1.279958  4.438397  3.771603
H    -0.887159  1.316094  1.666305
H    0.793548  0.869022  1.999737
H    1.007071  3.015264  2.821095
H    0.100737  2.496326  4.233587
N    -2.103028  -0.310344  5.286696
C    -3.313066  -0.225700  6.080729
H    -1.457969  -1.092987  5.423033
H    -3.834129  0.698931  5.811179
H    -3.068817  -0.205486  7.150700
H    -3.985288  -1.075866  5.889385
H    -1.953069  5.055714  3.425079
