28
Energy: -19698.2438025 eV PBE+vdW (tier 2 basis)
C    0.241639  1.228867  0.677232
C    0.247724  0.502610  2.004288
O    1.290907  0.377256  2.667217
H    0.622373  2.246220  0.831809
H    -0.746603  1.277432  0.205911
H    0.938931  0.721533  -0.001268
N    -0.946186  0.010652  2.410324
C    -1.197547  -0.694199  3.655380
C    -2.731066  -0.836956  3.726321
O    -3.459896  -0.155627  3.000178
H    -1.807290  0.262387  1.920862
H    -0.745634  -1.698548  3.593946
C    -0.605183  -0.005829  4.917265
C    -0.794397  1.521365  4.979937
C    0.427819  2.252816  5.531151
O    0.384499  2.983428  6.496970
O    1.590206  2.051965  4.867317
H    0.460362  -0.256682  4.941851
H    -1.048080  -0.463757  5.810319
H    -1.651077  1.798445  5.602214
H    -0.990510  1.920523  3.972633
N    -3.250935  -1.729471  4.609975
C    -2.568833  -2.653170  5.501317
H    -4.266507  -1.721146  4.626280
H    -2.405604  -2.228732  6.503428
H    -1.597863  -2.949862  5.089671
H    -3.174405  -3.561193  5.605308
H    1.480158  1.438673  4.094164
