28
Energy: -19698.2371781 eV PBE+vdW (tier 2 basis)
C    -0.599891  -1.082369  1.039271
C    -0.712879  -0.021360  2.117337
O    0.105280  0.055992  3.028444
H    -1.140039  -0.864007  0.112660
H    -0.991621  -2.027457  1.440810
H    0.462590  -1.229547  0.821501
N    -1.810229  0.821816  2.101298
C    -2.740182  1.102901  1.005178
C    -3.583993  -0.128136  0.597695
O    -3.965159  -0.298580  -0.560123
H    -1.744714  1.535579  2.823162
H    -3.461167  1.814500  1.435959
C    -2.084011  1.806852  -0.201644
C    -3.050367  2.609125  -1.073788
C    -3.640724  3.817737  -0.389870
O    -3.476496  4.143344  0.771065
O    -4.417578  4.541773  -1.242808
H    -1.581207  1.067289  -0.838457
H    -1.309611  2.475911  0.197437
H    -3.874660  1.972193  -1.427442
H    -2.543579  2.961800  -1.984395
N    -3.908729  -0.952001  1.629169
C    -4.712405  -2.145892  1.461208
H    -3.480391  -0.753859  2.527342
H    -5.576265  -2.136766  2.139454
H    -4.124417  -3.055934  1.649723
H    -5.069520  -2.164540  0.426188
H    -4.761756  5.292297  -0.720524
