28
Energy: -19697.9354947 eV PBE+vdW (tier 2 basis)
C    0.017825  0.207580  0.150001
C    -0.074813  0.013700  1.647815
O    0.926553  -0.059818  2.354662
H    1.067838  0.088294  -0.130252
H    -0.303862  1.219692  -0.134387
H    -0.593868  -0.525727  -0.387245
N    -1.318516  -0.025294  2.260752
C    -2.676768  -0.150249  1.752215
C    -2.968360  -1.551609  1.158396
O    -2.126167  -2.179042  0.524793
H    -1.210462  -0.197445  3.255918
H    -3.312734  -0.009175  2.638829
C    -3.097676  0.925234  0.728405
C    -2.903193  2.354841  1.260998
C    -3.328207  3.366481  0.224641
O    -4.429197  3.867711  0.133457
O    -2.319711  3.636590  -0.655361
H    -4.158077  0.769662  0.481875
H    -2.541124  0.787888  -0.206590
H    -1.851693  2.514052  1.530313
H    -3.520979  2.514935  2.153723
N    -4.232293  -2.040818  1.344613
C    -5.321908  -1.474296  2.124355
H    -4.375531  -2.949045  0.914035
H    -6.188197  -2.138054  2.036263
H    -5.629740  -0.484491  1.757574
H    -5.074154  -1.393123  3.193513
H    -2.691144  4.260982  -1.308832
