28
Energy: -19698.2903003 eV PBE+vdW (tier 2 basis)
C    0.004791  -2.206879  0.567422
C    0.442064  -1.128794  1.546913
O    1.554354  -1.140750  2.067593
H    0.821732  -2.926992  0.474821
H    -0.208454  -1.783269  -0.424782
H    -0.898476  -2.733493  0.904405
N    -0.454348  -0.127691  1.820898
C    -1.781195  0.077136  1.276464
C    -2.040929  1.597755  1.309439
O    -1.474853  2.317783  2.132273
H    -0.108581  0.642447  2.394771
H    -1.811442  -0.263548  0.229912
C    -2.884315  -0.693280  2.055133
C    -3.039148  -0.283605  3.519900
C    -3.945390  0.909698  3.735619
O    -4.760742  1.340202  2.943328
O    -3.776177  1.439180  4.974174
H    -2.628585  -1.760194  2.008184
H    -3.848958  -0.573311  1.540463
H    -2.068687  -0.087158  3.995420
H    -3.486206  -1.109329  4.096151
N    -2.933813  2.053820  0.395534
C    -3.468442  3.404249  0.448317
H    -3.439677  1.366461  -0.150944
H    -3.689644  3.756713  -0.565806
H    -2.712098  4.053830  0.899672
H    -4.381239  3.448257  1.060667
H    -4.407051  2.182024  5.041289
