28
Energy: -19698.1261297 eV PBE+vdW (tier 2 basis)
C    0.360258  -0.145724  -0.285556
C    0.096325  -0.285884  1.202600
O    0.682583  -1.108920  1.899485
H    1.434012  0.015746  -0.438707
H    -0.195658  0.671789  -0.761208
H    0.097847  -1.090415  -0.778372
N    -0.837058  0.581623  1.717769
C    -1.326959  0.454753  3.092911
C    -2.679929  1.163782  3.241511
O    -3.625422  0.630895  3.810700
H    -1.416585  1.097144  1.064753
H    -1.521411  -0.607178  3.302497
C    -0.275585  0.959618  4.109039
C    -0.607808  0.643036  5.570421
C    -1.633684  1.492026  6.291082
O    -2.265133  1.138710  7.261170
O    -1.737282  2.759733  5.779292
H    -0.105547  2.037442  3.974486
H    0.661176  0.448930  3.853200
H    0.311682  0.743093  6.170244
H    -0.928112  -0.400165  5.690666
N    -2.747736  2.417090  2.687051
C    -3.912101  3.261601  2.892119
H    -1.868310  2.881312  2.483359
H    -3.991904  3.988466  2.075658
H    -3.865084  3.799854  3.851729
H    -4.803342  2.626422  2.903287
H    -2.394101  3.204898  6.349106
