28
Energy: -19698.0259467 eV PBE+vdW (tier 2 basis)
C    -0.058281  -0.843616  -0.101725
C    0.352178  -0.745983  1.353372
O    1.523726  -0.772609  1.718899
H    -0.515586  0.093203  -0.450937
H    -0.793286  -1.643091  -0.267673
H    0.837509  -1.043668  -0.694589
N    -0.660768  -0.625401  2.280877
C    -2.074507  -0.415684  2.029980
C    -2.461208  0.917357  1.359115
O    -3.395561  0.907137  0.538442
H    -0.324928  -0.549379  3.237303
H    -2.431641  -1.161253  1.304035
C    -2.859525  -0.633852  3.342386
C    -4.367594  -0.329744  3.261191
C    -4.698768  1.139972  3.539908
O    -4.618688  1.615188  4.652090
O    -5.107054  1.897597  2.494045
H    -2.421612  -0.028856  4.151600
H    -2.714230  -1.685912  3.624362
H    -4.872918  -0.889666  4.058125
H    -4.781133  -0.668275  2.301787
N    -1.837553  2.071937  1.687352
C    -0.869159  2.350825  2.744271
H    -2.237150  2.872569  1.205545
H    -0.792667  3.438105  2.844565
H    0.126414  1.954276  2.510291
H    -1.200665  1.958035  3.713910
H    -4.860574  1.457402  1.646954
