28
Energy: -19698.270309 eV PBE+vdW (tier 2 basis)
C    -0.454308  -0.065299  -0.402643
C    -0.022207  0.042489  1.046867
O    1.026938  0.583164  1.381637
H    -0.680242  0.942447  -0.775174
H    -1.333204  -0.703598  -0.557380
H    0.382972  -0.451672  -0.995196
N    -0.884376  -0.522845  1.960663
C    -0.713710  -0.355157  3.398506
C    -0.604965  -1.713723  4.130201
O    -1.030322  -1.874360  5.273112
H    -1.775940  -0.873049  1.626362
H    0.268234  0.139515  3.497662
C    -1.802497  0.554773  3.993603
C    -1.418737  1.147268  5.354632
C    -2.411061  2.122129  5.938775
O    -2.129490  3.089279  6.615018
O    -3.706946  1.787963  5.655405
H    -2.746102  -0.001211  4.082895
H    -1.969186  1.370079  3.274733
H    -0.455319  1.671055  5.305311
H    -1.304250  0.327961  6.081342
N    0.027714  -2.688464  3.421259
C    0.312255  -4.000007  3.968562
H    0.342336  -2.457834  2.485926
H    1.394864  -4.168829  4.057224
H    -0.120222  -4.793060  3.343056
H    -0.136647  -4.047339  4.966327
H    -4.251583  2.459324  6.110316
