28
Energy: -19698.4828159 eV PBE+vdW (tier 2 basis)
C    -0.453764  -2.357252  1.823531
C    -0.337786  -1.650765  3.157136
O    -0.160026  -2.272301  4.213260
H    0.487505  -2.884997  1.622778
H    -0.667038  -1.678787  0.989165
H    -1.244738  -3.114234  1.889124
N    -0.427789  -0.291279  3.109617
C    -0.389644  0.525635  4.320549
C    -1.803531  0.648839  4.954614
O    -2.418482  1.714288  5.003881
H    -0.859403  0.144230  2.291052
H    0.227147  -0.039426  5.034670
C    0.259471  1.902386  4.096907
C    0.042508  2.584601  2.726117
C    -1.401043  2.657903  2.289884
O    -1.994767  1.750166  1.727397
O    -1.979327  3.842914  2.573980
H    1.345591  1.801518  4.226072
H    -0.109483  2.567450  4.887608
H    0.582909  2.031454  1.946478
H    0.461711  3.596799  2.774553
N    -2.262715  -0.532187  5.442284
C    -3.587205  -0.687652  6.009088
H    -1.659770  -1.349001  5.320489
H    -4.225161  -1.319264  5.373401
H    -4.040835  0.305900  6.088095
H    -3.532923  -1.138075  7.009449
H    -2.924412  3.752134  2.341821
