28
Energy: -19698.3701238 eV PBE+vdW (tier 2 basis)
C    -0.442919  -0.022335  0.244699
C    -0.175255  0.139651  1.725773
O    0.949708  0.413774  2.160447
H    0.231921  -0.787672  -0.157883
H    -0.202523  0.922223  -0.259593
H    -1.479880  -0.294042  0.013507
N    -1.256675  -0.023182  2.542223
C    -1.153409  0.066598  3.996360
C    -0.740430  -1.296365  4.617143
O    -1.489784  -1.952689  5.338344
H    -2.076337  -0.492397  2.167478
H    -0.316845  0.756971  4.180094
C    -2.411662  0.658413  4.654026
C    -3.793084  0.290481  4.070562
C    -4.152885  -1.176732  4.127404
O    -4.826254  -1.717640  4.971187
O    -3.637351  -1.855762  3.047311
H    -2.336358  1.753387  4.602690
H    -2.389830  0.376595  5.714579
H    -3.867282  0.636659  3.029378
H    -4.556243  0.823457  4.649279
N    0.525480  -1.660907  4.282520
C    1.116197  -2.917745  4.696760
H    1.043041  -1.031997  3.665116
H    2.074615  -2.749342  5.206229
H    1.287631  -3.584668  3.838868
H    0.423302  -3.404975  5.390894
H    -3.828814  -2.799562  3.209046
