28
Energy: -19698.0032272 eV PBE+vdW (tier 2 basis)
C    0.046041  -0.051796  0.012458
C    -0.047466  0.189865  1.508679
O    0.860677  0.703095  2.152058
H    -0.840342  -0.534036  -0.419220
H    0.926153  -0.674900  -0.188927
H    0.207020  0.910294  -0.489535
N    -1.224287  -0.210439  2.093515
C    -1.495286  -0.024444  3.508132
C    -0.906022  -1.068900  4.487845
O    -0.618844  -0.702141  5.623665
H    -1.938390  -0.627697  1.508550
H    -0.981564  0.898702  3.811630
C    -3.004923  0.114879  3.759272
C    -3.586698  1.405754  3.154962
C    -5.089857  1.465794  3.278870
O    -5.719472  2.203241  4.004885
O    -5.695804  0.549832  2.459729
H    -3.169287  0.110293  4.844844
H    -3.533044  -0.762284  3.351892
H    -3.322905  1.474472  2.089158
H    -3.174982  2.282504  3.667466
N    -0.744280  -2.373562  4.111046
C    -1.122176  -3.071391  2.893389
H    -0.338531  -2.929718  4.857262
H    -1.082500  -4.148016  3.094652
H    -0.447232  -2.856706  2.052762
H    -2.152395  -2.841114  2.588851
H    -6.654652  0.645360  2.619849
