28
Energy: -19698.3722188 eV PBE+vdW (tier 2 basis)
C    0.649573  0.532700  0.174447
C    0.260055  0.878442  1.594686
O    1.016091  1.541899  2.319719
H    1.328577  -0.330813  0.215599
H    1.193418  1.375419  -0.264076
H    -0.202866  0.272278  -0.464936
N    -0.945559  0.395128  1.998538
C    -1.526722  0.298580  3.351106
C    -1.767254  1.607047  4.147415
O    -2.738376  1.649495  4.907046
H    -1.436498  -0.156863  1.305360
H    -2.553884  -0.043314  3.171406
C    -0.885907  -0.784748  4.252715
C    0.541123  -0.548359  4.751404
C    1.624936  -1.009944  3.803033
O    1.472312  -1.699598  2.813451
O    2.848603  -0.591019  4.219676
H    -0.922665  -1.744210  3.717362
H    -1.553869  -0.871670  5.120408
H    0.700894  -1.111303  5.685395
H    0.731179  0.501610  5.010443
N    -0.882773  2.613995  3.992624
C    -1.018457  3.854246  4.732928
H    -0.045258  2.426837  3.422656
H    -0.769659  3.726174  5.797560
H    -2.051461  4.219317  4.676052
H    -0.345248  4.600504  4.297859
H    3.487892  -0.932986  3.565427
