28
Energy: -19697.9540375 eV PBE+vdW (tier 2 basis)
C    -1.576030  -0.654535  0.599102
C    -0.799007  -0.418318  1.882720
O    0.420052  -0.530524  1.937394
H    -1.076328  -1.438955  0.021960
H    -1.551840  0.270308  0.006084
H    -2.625326  -0.931282  0.765549
N    -1.588147  -0.086071  2.962031
C    -1.100230  0.421858  4.231686
C    -0.564158  1.871571  4.074247
O    -0.405570  2.395107  2.979624
H    -2.573606  0.049214  2.776072
H    -1.990502  0.488468  4.879407
C    -0.098715  -0.549141  4.898457
C    -0.786476  -1.707926  5.645559
C    -1.735552  -2.507542  4.780842
O    -2.947912  -2.419690  4.798152
O    -1.071319  -3.361123  3.955565
H    0.527461  -0.008593  5.618932
H    0.573310  -0.924966  4.119420
H    -1.373917  -1.326807  6.491332
H    -0.013612  -2.383633  6.036863
N    -0.314697  2.563829  5.232711
C    -0.558601  2.183583  6.612571
H    0.046089  3.496550  5.057473
H    0.311419  1.700583  7.085561
H    -1.413339  1.500614  6.691392
H    -0.806588  3.080426  7.193194
H    -1.754933  -3.803104  3.415880
