28
Energy: -19698.5729086 eV PBE+vdW (tier 2 basis)
C    -0.348728  0.530757  -0.066163
C    -0.225948  0.316602  1.424951
O    0.877008  0.050548  1.935118
H    -0.010116  -0.378124  -0.579075
H    0.325598  1.342961  -0.364190
H    -1.367898  0.769156  -0.390679
N    -1.368614  0.439908  2.136005
C    -1.506817  0.152110  3.553405
C    -2.942299  -0.357169  3.753010
O    -3.832373  -0.056642  2.953111
H    -2.264358  0.576984  1.665919
H    -0.789633  -0.638622  3.816575
C    -1.268465  1.395853  4.444813
C    0.210455  1.795259  4.584660
C    0.996833  0.689154  5.288633
O    1.026842  0.587702  6.499912
O    1.610710  -0.209161  4.497231
H    -1.674838  1.208427  5.448889
H    -1.846971  2.228329  4.019966
H    0.275932  2.689202  5.216622
H    0.643570  2.033949  3.604647
N    -3.174472  -1.109177  4.858849
C    -2.195443  -1.628055  5.809165
H    -4.143694  -1.391617  4.963914
H    -1.684364  -0.832150  6.367652
H    -1.433680  -2.248060  5.316436
H    -2.724341  -2.257639  6.531221
H    1.384104  -0.053483  3.531401
