28
Energy: -19697.818605 eV PBE+vdW (tier 2 basis)
C    0.746672  1.378887  0.691442
C    0.403317  -0.081637  0.904012
O    1.248842  -0.968140  0.818934
H    1.835122  1.476003  0.716162
H    0.302323  2.033159  1.453798
H    0.388359  1.717676  -0.290590
N    -0.911091  -0.405751  1.172699
C    -2.017292  0.482850  1.536257
C    -3.144861  -0.255614  2.291672
O    -3.709900  0.339606  3.204654
H    -0.998003  -1.380100  1.446168
H    -1.678409  1.188983  2.309238
C    -2.563910  1.368264  0.381243
C    -2.784242  0.697717  -0.972468
C    -4.151093  0.080133  -1.159633
O    -5.096706  0.182857  -0.407693
O    -4.214727  -0.621720  -2.328311
H    -1.858332  2.196048  0.240485
H    -3.501074  1.818940  0.735201
H    -2.017291  -0.062931  -1.182873
H    -2.674108  1.437018  -1.781432
N    -3.460318  -1.561399  2.013124
C    -3.274597  -2.362400  0.811041
H    -4.196876  -1.880024  2.638631
H    -4.226483  -2.489223  0.275979
H    -2.881924  -3.356581  1.067678
H    -2.566866  -1.889090  0.126552
H    -5.132801  -0.948745  -2.396089
