28
Energy: -19698.1464859 eV PBE+vdW (tier 2 basis)
C    1.184841  -0.907202  2.887933
C    0.884163  0.431903  2.244128
O    1.531102  1.431934  2.541913
H    2.273466  -1.007439  2.940148
H    0.801086  -0.888339  3.917265
H    0.765116  -1.782062  2.383891
N    -0.170446  0.551701  1.352564
C    -0.957757  -0.452519  0.629405
C    -1.502551  -1.575636  1.548764
O    -1.510849  -2.755000  1.206519
H    -0.188541  1.487821  0.952816
H    -1.868359  0.084614  0.313996
C    -0.329113  -0.996938  -0.669402
C    1.128181  -1.452550  -0.589129
C    2.108549  -0.297536  -0.594723
O    1.958067  0.751090  -1.187025
O    3.225690  -0.577076  0.131892
H    -0.397454  -0.214174  -1.437240
H    -0.953147  -1.839151  -0.993191
H    1.359912  -2.042801  -1.490405
H    1.323037  -2.116653  0.259969
N    -2.035904  -1.122111  2.716611
C    -2.564979  -2.010984  3.732211
H    -1.894483  -0.143005  2.941258
H    -3.515114  -1.625777  4.123158
H    -1.861564  -2.137868  4.569533
H    -2.734846  -2.988388  3.269116
H    3.787533  0.221198  0.078106
