28
Energy: -19698.2696182 eV PBE+vdW (tier 2 basis)
C    -2.258644  -2.380838  0.672372
C    -1.571250  -1.506676  1.703408
O    -0.713396  -0.678140  1.393739
H    -1.503962  -3.020138  0.196612
H    -2.683288  -1.740734  -0.110296
H    -3.050741  -3.013397  1.090454
N    -1.984630  -1.692059  2.993431
C    -1.299390  -1.094105  4.123662
C    -1.250740  -2.166871  5.228925
O    -2.042995  -3.110023  5.235031
H    -2.556848  -2.498178  3.243243
H    -0.281091  -0.834400  3.790510
C    -1.996759  0.177491  4.654037
C    -2.089381  1.283892  3.606720
C    -2.589291  2.598784  4.180779
O    -2.817819  2.811651  5.346960
O    -2.768118  3.599292  3.262244
H    -1.450575  0.558050  5.528848
H    -3.002233  -0.086475  5.012687
H    -2.752233  0.981725  2.780794
H    -1.106280  1.457183  3.139010
N    -0.306498  -1.969072  6.184737
C    -0.167298  -2.823604  7.350341
H    0.313910  -1.173987  6.087694
H    -0.902783  -3.629166  7.259957
H    -0.359922  -2.265594  8.277098
H    0.838698  -3.261497  7.398937
H    -2.537442  3.271887  2.375068
