28
Energy: -19698.3778504 eV PBE+vdW (tier 2 basis)
C    0.081564  -1.886729  2.200260
C    0.555594  -0.446057  2.112214
O    1.745382  -0.145960  2.167782
H    -0.521973  -2.053634  3.104214
H    0.964995  -2.528529  2.244447
H    -0.534034  -2.174392  1.336573
N    -0.409204  0.523307  1.953800
C    -1.848824  0.327189  1.898766
C    -2.408176  -0.001351  0.493391
O    -3.584636  -0.335462  0.354501
H    -0.073002  1.489726  1.956355
H    -2.110151  -0.546663  2.512051
C    -2.630550  1.524344  2.492592
C    -2.865060  2.735627  1.584008
C    -1.668233  3.603416  1.284280
O    -0.511306  3.390804  1.600958
O    -2.027640  4.713987  0.589640
H    -2.132724  1.831434  3.422924
H    -3.622224  1.145105  2.768018
H    -3.627050  3.391080  2.031841
H    -3.301355  2.426417  0.620787
N    -1.523887  0.143359  -0.526277
C    -1.864055  -0.123260  -1.909311
H    -0.574016  0.397710  -0.271840
H    -1.686092  0.760745  -2.536785
H    -2.928029  -0.381607  -1.946409
H    -1.278675  -0.963008  -2.309335
H    -1.203935  5.216263  0.434031
