28
Energy: -572076.539758 eV PBE+vdW (tier 2 basis)
N    -0.695633  0.129524  -0.309407
C    -1.018792  0.060447  1.073161
C    -0.602457  1.379355  1.799972
O    -0.566550  1.422039  3.025004
H    -1.415095  -0.153379  -0.970077
H    0.228560  -0.192997  -0.591809
H    -2.116717  0.044705  1.168538
C    -0.403406  -1.133905  1.888122
C    -0.426694  -0.926030  3.350527
C    -1.629048  -0.685522  4.139945
C    0.628709  -1.041794  4.292622
N    -1.312949  -0.647349  5.418133
C    0.074854  -0.859086  5.588666
C    2.011072  -1.304071  4.169623
C    0.814255  -0.922330  6.743995
C    2.783355  -1.382759  5.325607
C    2.204609  -1.200660  6.589636
H    0.622603  -1.325360  1.547048
H    -0.998481  -2.025704  1.630221
H    -2.653037  -0.555073  3.799564
H    -1.976635  -0.478882  6.174634
H    2.470172  -1.461615  3.194026
H    0.375054  -0.808165  7.734453
H    3.845444  -1.610021  5.252440
H    2.807067  -1.357387  7.484001
O    -0.338176  2.402478  1.036457
H    -0.426142  2.081575  0.096189
Hg    3.010059  1.738962  7.764708
