28
Energy: -572076.316433 eV PBE+vdW (tier 2 basis)
N    -0.979660  0.158307  0.381342
C    -0.338768  -0.159311  1.581954
C    1.180124  -0.510645  1.328205
O    1.519588  -1.169427  0.382088
H    -1.326217  1.102652  0.243066
H    -0.637857  -0.301713  -0.462949
H    -0.420333  0.657124  2.306750
C    -0.883979  -1.545071  2.278523
C    -2.232444  -1.301955  2.757349
C    -2.606428  -0.952306  4.122917
C    -3.389475  -1.067022  1.973676
N    -3.859791  -0.515055  4.129057
C    -4.402956  -0.559592  2.828134
C    -3.641578  -1.189987  0.587492
C    -5.638073  -0.164517  2.368871
C    -4.884816  -0.760468  0.098008
C    -5.861377  -0.276463  0.967430
H    -0.187759  -1.806399  3.083128
H    -0.823036  -2.297822  1.482539
H    -1.980257  -0.922240  5.011248
H    -4.365042  -0.211355  4.961509
H    -2.928827  -1.680953  -0.072071
H    -6.414602  0.229121  3.024360
H    -5.107577  -0.847268  -0.964175
H    -6.834992  0.013360  0.572734
O    1.927033  0.014632  2.295261
H    2.873094  -0.189634  2.125608
Hg    -2.679198  -4.055165  4.653395
