28
Energy: -572076.5833 eV PBE+vdW (tier 2 basis)
N    0.351001  1.411186  2.015436
C    0.163215  -0.065085  1.752377
C    1.440953  -0.491669  0.956068
O    1.405910  -1.684043  0.501169
H    0.262912  1.674968  3.003814
H    -0.276182  2.009457  1.463071
H    0.210137  -0.571201  2.726146
C    -1.121262  -0.407084  0.997458
C    -1.180277  -1.835729  0.578901
C    -0.888699  -2.972895  1.409187
C    -1.662124  -2.358833  -0.651994
N    -1.150581  -4.086848  0.731350
C    -1.635157  -3.775565  -0.550997
C    -2.130842  -1.767001  -1.846649
C    -2.043062  -4.612307  -1.567759
C    -2.553067  -2.598205  -2.883970
C    -2.509208  -3.991108  -2.751371
H    -1.220455  0.234619  0.109298
H    -1.990536  -0.186869  1.644150
H    -0.528894  -3.009766  2.432596
H    -1.024545  -5.030107  1.094277
H    -2.170672  -0.684417  -1.965148
H    -2.020008  -5.697833  -1.478999
H    -2.922302  -2.160866  -3.809838
H    -2.843115  -4.619648  -3.576081
O    2.335805  0.363625  0.876945
H    1.356893  1.549101  1.677283
Hg    3.709362  -1.822109  -0.485554
