28
Energy: -572076.375703 eV PBE+vdW (tier 2 basis)
N    1.039447  -1.121893  0.295727
C    0.223958  -0.140966  1.123215
C    1.284302  0.575951  2.044756
O    0.796776  1.357763  2.906080
H    0.880913  -2.099877  0.566408
H    2.034582  -0.850743  0.551562
H    -0.158122  0.619514  0.429710
C    -0.916574  -0.776921  1.932878
C    -2.061178  -1.226236  1.094316
C    -2.435299  -2.578829  0.870479
C    -3.034584  -0.427576  0.413873
N    -3.542588  -2.616088  0.114432
C    -3.958858  -1.316991  -0.193458
C    -3.256724  0.963049  0.303116
C    -5.068220  -0.886672  -0.899195
C    -4.371558  1.414984  -0.410167
C    -5.256507  0.512268  -1.005608
H    -1.233213  0.008407  2.640488
H    -0.525422  -1.600682  2.548788
H    -1.980142  -3.490324  1.248094
H    -4.029444  -3.466783  -0.161764
H    -2.584929  1.682219  0.772668
H    -5.780226  -1.580321  -1.345443
H    -4.556287  2.484001  -0.499479
H    -6.118457  0.885549  -1.556791
O    2.474877  0.306438  1.796681
H    0.893102  -1.035765  -0.716077
Hg    2.813376  2.132523  3.940708
