28
Energy: -572076.338755 eV PBE+vdW (tier 2 basis)
N    -0.022550  0.555141  0.096261
C    -0.253466  0.072232  1.389406
C    0.949959  0.272472  2.423530
O    0.986527  -0.308654  3.474865
H    -0.290134  1.510617  -0.124556
H    0.806985  0.237626  -0.401465
H    -1.075075  0.645267  1.848500
C    -0.599881  -1.482642  1.431703
C    -2.016307  -1.646714  1.102540
C    -3.103630  -1.700144  2.071093
C    -2.637802  -1.525465  -0.163980
N    -4.261497  -1.592686  1.428665
C    -4.043247  -1.482225  0.040370
C    -2.119482  -1.385573  -1.473226
C    -4.942491  -1.311254  -0.986644
C    -3.019609  -1.186870  -2.526555
C    -4.396029  -1.166434  -2.291984
H    -0.367157  -1.822682  2.448879
H    0.061590  -1.993838  0.720981
H    -3.043872  -1.723644  3.156532
H    -5.178108  -1.611666  1.875223
H    -1.052817  -1.482005  -1.667475
H    -6.019929  -1.271654  -0.828564
H    -2.648240  -1.080301  -3.544345
H    -5.081060  -1.043596  -3.130626
O    1.809889  1.172613  1.956720
H    2.515320  1.325419  2.623751
Hg    -2.408829  -4.767398  2.234181
