28
Energy: -572076.526107 eV PBE+vdW (tier 2 basis)
N    -0.052381  -0.969065  -0.143806
C    0.135784  -0.368365  1.195123
C    1.610041  -0.534692  1.605370
O    2.299133  -1.481875  1.232123
H    -1.045952  -1.066182  -0.368239
H    0.363351  -0.386926  -0.878587
H    -0.097597  0.708958  1.146083
C    -0.800744  -1.030736  2.272101
C    -0.278473  -2.234966  3.013500
C    0.231793  -2.186218  4.320582
C    -0.128268  -3.583304  2.594804
N    0.690254  -3.403904  4.691214
C    0.504847  -4.298023  3.657967
C    -0.431102  -4.321560  1.381105
C    0.832022  -5.643442  3.579072
C    -0.077801  -5.722173  1.326384
C    0.540994  -6.349219  2.389986
H    -1.755648  -1.263025  1.775831
H    -1.042593  -0.254014  3.009246
H    0.278816  -1.343367  5.004365
H    1.083493  -3.626724  5.602546
H    -1.304778  -4.020794  0.789057
H    1.309069  -6.156734  4.415303
H    -0.359648  -6.291926  0.441595
H    0.784493  -7.408453  2.327637
O    2.132844  0.339008  2.444944
H    1.557202  1.112365  2.606094
Hg    1.000111  -3.158476  0.046321
