28
Energy: -572076.461746 eV PBE+vdW (tier 2 basis)
N    -0.279677  1.227108  1.166986
C    -0.091594  0.024651  1.949683
C    1.337434  -0.605732  1.859066
O    1.520785  -1.762162  2.150951
H    0.201591  2.045688  1.544435
H    -0.036173  1.126827  0.178497
H    -0.185845  0.301013  3.012721
C    -1.088141  -1.109640  1.601183
C    -2.517904  -0.978059  1.979017
C    -3.030538  -0.577989  3.286536
C    -3.616744  -1.640835  1.330726
N    -4.288143  -0.992224  3.401899
C    -4.711984  -1.640149  2.232105
C    -3.753192  -2.293062  0.088719
C    -5.926562  -2.238477  1.949916
C    -4.971463  -2.904320  -0.211814
C    -6.039922  -2.870852  0.693595
H    -0.676397  -1.997647  2.129728
H    -1.009883  -1.362918  0.533835
H    -2.502034  -0.128095  4.122778
H    -4.870706  -0.843649  4.225985
H    -2.936731  -2.319231  -0.632514
H    -6.753461  -2.247784  2.659316
H    -5.096176  -3.413650  -1.165948
H    -6.981254  -3.352128  0.430735
O    2.249028  0.287296  1.480106
H    3.140391  -0.125509  1.480958
Hg    -2.804975  1.695603  1.428042
