28
Energy: -572076.344825 eV PBE+vdW (tier 2 basis)
N    -0.143161  1.430832  1.450603
C    0.083400  0.033076  1.820115
C    1.295552  -0.480862  0.990713
O    1.647139  0.075772  -0.020894
H    0.419296  2.074498  2.012693
H    0.126796  1.567774  0.463563
H    0.318294  -0.032209  2.890273
C    -1.116548  -0.905514  1.467682
C    -2.461800  -0.694052  2.098952
C    -2.722822  -0.555158  3.533765
C    -3.705096  -1.171217  1.538053
N    -3.972420  -0.927407  3.781171
C    -4.632197  -1.305151  2.602246
C    -4.091183  -1.559219  0.241395
C    -5.919953  -1.784443  2.432111
C    -5.385711  -2.047133  0.052211
C    -6.286369  -2.147995  1.121040
H    -0.792593  -1.919004  1.764406
H    -1.240935  -0.939990  0.375418
H    -2.031764  -0.302434  4.333964
H    -4.402259  -0.919244  4.706963
H    -3.410621  -1.474212  -0.605513
H    -6.614578  -1.902133  3.263274
H    -5.703419  -2.352015  -0.943610
H    -7.291709  -2.527265  0.941591
O    1.806229  -1.583657  1.539672
H    2.557184  -1.904199  0.994972
Hg    -2.475756  1.861560  1.992171
