28
Energy: -572075.304195 eV PBE+vdW (tier 2 basis)
N    2.083280  1.394958  3.186723
C    1.542450  0.023963  3.096621
C    0.471954  -0.094531  1.985438
O    0.607857  0.538463  0.851936
H    1.443928  2.044881  3.655621
H    2.986171  1.436060  3.666542
H    2.374104  -0.622061  2.773725
C    1.012733  -0.492699  4.491145
C    0.951251  -1.981681  4.640311
C    2.056056  -2.807014  4.963264
C    -0.157862  -2.839155  4.560994
N    1.663293  -4.090076  5.067401
C    0.297911  -4.161053  4.830209
C    -1.589532  -2.627693  4.277275
C    -0.539015  -5.261934  4.847910
C    -2.429706  -3.837786  4.322049
C    -1.923055  -5.085956  4.584487
H    0.027792  -0.047136  4.681530
H    1.697558  -0.095527  5.252463
H    3.092685  -2.529653  5.135274
H    2.267287  -4.872593  5.304812
H    -1.697010  -2.153241  3.273398
H    -0.151448  -6.259391  5.063648
H    -3.495822  -3.713837  4.128344
H    -2.578736  -5.954846  4.602507
O    -0.498802  -0.834055  2.116454
H    -2.036233  -1.846116  4.923352
Hg    2.153912  2.084707  0.824567
