28
Energy: -572076.530657 eV PBE+vdW (tier 2 basis)
N    0.113858  0.523140  0.389621
C    -0.360972  0.327741  1.817300
C    0.942496  0.367021  2.673742
O    0.736158  0.718410  3.894520
H    -0.460914  0.033748  -0.308948
H    1.095046  0.151609  0.391209
H    -1.032757  1.151067  2.082257
C    -1.082135  -1.058544  1.955882
C    -1.149213  -1.492065  3.384109
C    -2.094971  -1.083260  4.345712
C    -0.102491  -2.118562  4.097001
N    -1.648636  -1.369933  5.585990
C    -0.377755  -1.927361  5.494962
C    1.122259  -2.710981  3.696310
C    0.622183  -1.993319  6.439892
C    2.126486  -2.847456  4.627833
C    1.938911  -2.370164  5.975784
H    -0.525165  -1.804501  1.368945
H    -2.086011  -0.970335  1.516356
H    -3.054651  -0.594328  4.198504
H    -2.149156  -1.167707  6.447830
H    1.291577  -3.005241  2.661827
H    0.465299  -1.739669  7.488270
H    3.090902  -3.273177  4.355208
H    2.709698  -2.571144  6.722327
O    1.986007  0.003904  2.127090
H    0.155580  1.517409  0.126162
Hg    2.364366  -0.081304  5.254305
