28
Energy: -572076.783888 eV PBE+vdW (tier 2 basis)
N    -1.529710  -1.001878  1.609667
C    -0.126798  -1.464090  1.729928
C    -0.137402  -2.925114  2.189552
O    -1.029325  -3.425539  2.875796
H    -1.986852  -1.405704  0.785226
H    -1.572777  0.014874  1.503067
H    0.361324  -1.436488  0.743390
C    0.706069  -0.575444  2.719500
C    0.720130  -0.965332  4.175286
C    1.799329  -1.614091  4.796398
C    -0.275895  -0.834919  5.178286
N    1.499069  -1.895033  6.086166
C    0.225207  -1.447792  6.368246
C    -1.611816  -0.267274  5.231422
C    -0.502742  -1.526645  7.545716
C    -2.348341  -0.365523  6.471204
C    -1.808255  -0.985958  7.580273
H    0.362191  0.463611  2.599102
H    1.740271  -0.585342  2.353096
H    2.768190  -1.874024  4.378905
H    2.133152  -2.330473  6.751708
H    -1.828543  0.612911  4.612262
H    -0.083559  -1.996914  8.436494
H    -3.325405  0.112614  6.531413
H    -2.378744  -1.033968  8.506222
O    0.934916  -3.578852  1.788876
H    0.906382  -4.511898  2.095125
Hg    -2.551063  -1.667716  3.698675
