28
Energy: -572076.340685 eV PBE+vdW (tier 2 basis)
N    0.544596  -0.248287  0.659718
C    -0.760286  -0.007054  1.401902
C    -0.327648  0.673127  2.733357
O    -1.190162  1.432304  3.277582
H    0.487934  -1.014312  -0.024216
H    1.257140  -0.447331  1.395087
H    -1.381756  0.647145  0.781121
C    -1.518867  -1.357739  1.690515
C    -1.104531  -2.004786  2.975961
C    0.043582  -2.784839  3.209677
C    -1.582524  -1.619750  4.251866
N    0.333791  -2.806787  4.529469
C    -0.587522  -2.021412  5.208634
C    -2.713286  -0.879938  4.683089
C    -0.487512  -1.404260  6.436968
C    -2.694157  -0.324411  5.941799
C    -1.515371  -0.448764  6.774526
H    -1.392224  -2.026572  0.825211
H    -2.585918  -1.103065  1.718322
H    0.669230  -3.320559  2.500166
H    1.122281  -3.293389  4.948043
H    -3.558659  -0.709489  4.018263
H    0.338779  -1.582547  7.124740
H    -3.534596  0.261228  6.311908
H    -1.545983  -0.067013  7.796903
O    0.782863  0.332954  3.189695
H    0.853990  0.597181  0.158601
Hg    -0.517183  1.328364  5.478095
