28
Energy: -572076.733304 eV PBE+vdW (tier 2 basis)
N    -1.421769  1.086876  1.657392
C    -0.346218  0.267224  2.250388
C    0.672655  -0.058274  1.151553
O    0.372825  -0.224409  -0.032456
H    -2.215806  1.173149  2.294947
H    -1.096462  2.032714  1.436032
H    0.185268  0.842764  3.022612
C    -0.871791  -1.097383  2.868352
C    -2.361907  -1.287371  2.882427
C    -3.214767  -1.033610  3.969064
C    -3.203357  -1.736389  1.830193
N    -4.500339  -1.282335  3.619586
C    -4.547977  -1.703145  2.305244
C    -2.977119  -2.161407  0.461726
C    -5.635471  -2.049312  1.515657
C    -4.127779  -2.511291  -0.337996
C    -5.408359  -2.442260  0.177214
H    -0.485536  -1.156292  3.892756
H    -0.407403  -1.935826  2.330854
H    -2.962898  -0.709366  4.975207
H    -5.298340  -1.210867  4.246513
H    -2.045262  -2.693806  0.226090
H    -6.652015  -2.022376  1.910992
H    -3.962821  -2.889403  -1.346371
H    -6.256887  -2.727269  -0.442511
O    1.891896  -0.180446  1.629269
H    2.524665  -0.434257  0.921102
Hg    -2.073029  -0.199636  -0.286832
