28
Energy: -572076.249276 eV PBE+vdW (tier 2 basis)
N    1.318849  -1.376026  0.584867
C    0.076230  -0.797733  0.822487
C    0.152302  0.602953  1.567606
O    -0.616500  0.929705  2.439527
H    1.718351  -1.397745  -0.347652
H    1.963111  -1.562865  1.348741
H    -0.399682  -0.568276  -0.142407
C    -0.908072  -1.730101  1.714383
C    -2.132205  -2.053680  0.994965
C    -2.395786  -3.327956  0.330363
C    -3.241023  -1.216560  0.662272
N    -3.524857  -3.233353  -0.356424
C    -4.113194  -1.965377  -0.169093
C    -3.599184  0.103106  1.019988
C    -5.308965  -1.475915  -0.646912
C    -4.808822  0.618377  0.543943
C    -5.644119  -0.148298  -0.272717
H    -1.119786  -1.107145  2.600282
H    -0.354604  -2.626337  2.010508
H    -1.752526  -4.202348  0.269918
H    -3.925993  -3.982388  -0.921081
H    -2.952746  0.704369  1.658799
H    -5.976411  -2.062986  -1.277096
H    -5.105105  1.631103  0.812081
H    -6.580706  0.275258  -0.634176
O    1.138812  1.325717  1.053734
H    1.165952  2.206917  1.486546
Hg    -3.209276  -4.374078  3.184879
