36
Energy: -23361.431325 eV PBE+vdW (tier 2 basis)
C    0.858450  1.692973  1.755828
C    0.335149  0.344872  2.213772
O    1.047296  -0.661746  2.239233
H    1.246544  1.591081  0.734796
H    1.699795  1.981670  2.398201
H    0.103045  2.487946  1.775595
N    -0.973187  0.321591  2.594797
C    -1.619311  -0.896834  3.036008
C    -3.113453  -0.735377  2.738157
O    -3.638579  0.380156  2.831112
H    -1.567327  1.146030  2.559968
H    -1.165336  -1.725380  2.478167
C    -1.386578  -1.138840  4.560216
C    -1.760250  -2.507443  5.021991
C    -2.855152  -2.866837  5.774855
C    -1.063211  -3.728049  4.708343
N    -2.882157  -4.240198  5.939513
C    -1.791885  -4.797547  5.302193
C    0.098169  -4.017541  3.968906
C    -1.388467  -6.130590  5.185950
C    0.497839  -5.343558  3.849310
C    -0.234792  -6.387038  4.451471
H    -1.938687  -0.369154  5.117832
H    -0.314941  -0.963529  4.733910
H    -3.630264  -2.242596  6.207378
H    -3.550859  -4.745541  6.503918
H    0.672755  -3.217294  3.499241
H    -1.953310  -6.939815  5.649805
H    1.396179  -5.584475  3.281518
H    0.108953  -7.415122  4.340020
N    -3.845122  -1.829168  2.398558
C    -3.441114  -3.212377  2.207225
H    -4.830579  -1.610061  2.277811
H    -3.905826  -3.606794  1.293841
H    -3.732534  -3.845238  3.057381
H    -2.356710  -3.289031  2.094570
