36
Energy: -23360.7602771 eV PBE+vdW (tier 2 basis)
C    -0.796983  0.018645  -0.239004
C    -0.444569  -0.607750  1.097721
O    0.224123  -1.637481  1.170970
H    -0.288347  -0.552726  -1.019657
H    -0.478981  1.067985  -0.304389
H    -1.880421  -0.018271  -0.414357
N    -0.921344  -0.010145  2.236555
C    -1.558141  1.288749  2.423138
C    -2.894282  1.364442  1.628826
O    -3.732596  0.492493  1.841537
H    -0.651971  -0.508966  3.078127
H    -1.941403  1.260207  3.454390
C    -0.530147  2.451367  2.384874
C    0.501538  2.294240  3.457629
C    1.736587  1.696858  3.334393
C    0.362394  2.659499  4.842854
N    2.373527  1.680509  4.558919
C    1.559211  2.261810  5.507096
C    -0.652000  3.282408  5.591474
C    1.761849  2.474181  6.873225
C    -0.454753  3.492342  6.950927
C    0.739276  3.092968  7.584919
H    -1.058959  3.405320  2.525809
H    -0.038289  2.499227  1.404643
H    2.209030  1.261144  2.460122
H    3.290469  1.292469  4.731645
H    -1.582278  3.597272  5.116475
H    2.684512  2.165989  7.365587
H    -1.234646  3.972833  7.541079
H    0.863231  3.271332  8.652589
N    -3.195185  2.391838  0.771612
C    -2.400721  3.447191  0.160001
H    -4.140437  2.279711  0.416622
H    -2.165552  4.263154  0.856852
H    -2.988849  3.870790  -0.661243
H    -1.463984  3.070554  -0.269412
