36
Energy: -23360.9787594 eV PBE+vdW (tier 2 basis)
C    0.953645  0.860210  0.075107
C    0.642448  0.482158  1.513412
O    1.078600  1.114542  2.470270
H    0.504509  1.839460  -0.134605
H    0.587559  0.138238  -0.665826
H    2.039166  0.969240  -0.034196
N    -0.150457  -0.622808  1.672017
C    -0.640056  -1.074685  2.968490
C    0.432935  -1.299767  4.055681
O    0.195244  -0.951309  5.206433
H    -0.503770  -1.090713  0.845133
H    -1.280238  -0.298792  3.412745
C    -1.478934  -2.361563  2.755313
C    -2.223949  -2.807612  3.969193
C    -1.846282  -3.793223  4.852397
C    -3.446883  -2.248546  4.478914
N    -2.766643  -3.881861  5.875717
C    -3.760900  -2.947019  5.679766
C    -4.308961  -1.227498  4.044373
C    -4.897827  -2.656941  6.437960
C    -5.440337  -0.934901  4.796361
C    -5.731766  -1.641879  5.980362
H    -0.821639  -3.169432  2.399011
H    -2.194099  -2.155166  1.940187
H    -0.969591  -4.432269  4.839121
H    -2.702617  -4.511893  6.662826
H    -4.093697  -0.666156  3.134152
H    -5.123010  -3.200474  7.355926
H    -6.114153  -0.142598  4.471170
H    -6.624947  -1.386362  6.549751
N    1.579934  -1.994841  3.760354
C    2.151987  -2.377590  2.480820
H    2.201791  -2.023262  4.562889
H    2.948732  -3.107683  2.667746
H    2.586391  -1.526289  1.933490
H    1.410546  -2.862224  1.835622
