36
Energy: -23361.0555876 eV PBE+vdW (tier 2 basis)
C    -0.161240  -1.067566  0.020211
C    -0.080806  -0.125630  1.202747
O    0.990588  0.175519  1.725711
H    -0.828470  -0.709721  -0.772068
H    -0.539222  -2.049661  0.337160
H    0.850857  -1.192206  -0.373463
N    -1.252531  0.382011  1.722356
C    -2.643226  0.247153  1.285130
C    -3.066681  -1.234295  1.121070
O    -3.412863  -1.704373  0.038936
H    -1.076772  1.013033  2.498724
H    -3.239598  0.649344  2.118633
C    -3.008669  1.072840  0.030464
C    -4.464484  1.415269  -0.015566
C    -5.458282  0.745451  -0.693550
C    -5.110495  2.483052  0.702185
N    -6.678822  1.341773  -0.445213
C    -6.503617  2.409859  0.408472
C    -4.653424  3.497555  1.561769
C    -7.428433  3.309985  0.943413
C    -5.571451  4.392942  2.098703
C    -6.944293  4.300062  1.793255
H    -2.721945  0.512012  -0.867422
H    -2.403560  1.990560  0.055877
H    -5.382706  -0.135171  -1.321745
H    -7.562418  1.038846  -0.830487
H    -3.592506  3.588476  1.800066
H    -8.490499  3.242414  0.705703
H    -5.227527  5.184208  2.764510
H    -7.638962  5.018090  2.228118
N    -3.035421  -2.004397  2.248309
C    -2.648465  -1.629977  3.598631
H    -3.289358  -2.971963  2.076314
H    -3.104346  -0.675428  3.894166
H    -1.558600  -1.545991  3.717042
H    -3.018153  -2.395431  4.289708
