36
Energy: -23360.7332953 eV PBE+vdW (tier 2 basis)
C    -0.130658  0.064887  -0.157378
C    0.035310  0.109453  1.350112
O    1.146762  0.142785  1.874003
H    0.862926  0.157229  -0.603248
H    -0.762291  0.884015  -0.527275
H    -0.579756  -0.884131  -0.478795
N    -1.095257  0.107943  2.127665
C    -2.505121  0.148809  1.756039
C    -2.865518  -1.045125  0.823667
O    -2.645570  -2.178647  1.242660
H    -0.882455  0.134531  3.119632
H    -3.036724  -0.152538  2.671120
C    -3.012533  1.579871  1.439502
C    -2.958881  2.484126  2.634345
C    -4.007051  2.736867  3.493848
C    -1.835681  3.238315  3.131275
N    -3.599648  3.596567  4.493226
C    -2.275244  3.927241  4.299312
C    -0.505301  3.413178  2.708635
C    -1.435528  4.764310  5.039432
C    0.331380  4.245174  3.440525
C    -0.126988  4.913190  4.594156
H    -4.055745  1.513165  1.099622
H    -2.434886  2.020494  0.614845
H    -5.028453  2.370548  3.464569
H    -4.186810  3.944797  5.238148
H    -0.123047  2.894240  1.831054
H    -1.790867  5.280227  5.931879
H    1.365521  4.376596  3.124223
H    0.557127  5.554990  5.148537
N    -3.480410  -0.884958  -0.392056
C    -3.699316  0.266977  -1.254660
H    -3.691018  -1.793302  -0.795536
H    -3.900683  -0.106283  -2.264803
H    -2.816751  0.914019  -1.316371
H    -4.560340  0.875877  -0.944690
