36
Energy: -23361.0340269 eV PBE+vdW (tier 2 basis)
C    -1.786647  1.507834  -0.265902
C    -1.571379  0.430461  0.773728
O    -1.060581  -0.651914  0.487223
H    -1.845864  2.525308  0.129614
H    -2.718550  1.289769  -0.807707
H    -0.960431  1.450649  -0.981120
N    -2.041977  0.632078  2.057110
C    -2.443198  1.854688  2.741217
C    -3.525947  2.675400  2.004049
O    -3.449948  3.897422  1.898394
H    -1.830777  -0.165425  2.651131
H    -2.957269  1.511311  3.656721
C    -1.246364  2.728136  3.227824
C    -0.158852  2.974805  2.229497
C    0.873089  2.102153  1.951209
C    0.021791  4.104802  1.352064
N    1.673130  2.617931  0.955040
C    1.182991  3.846707  0.566442
C    -0.678368  5.306828  1.143412
C    1.655221  4.742559  -0.396689
C    -0.210168  6.199889  0.187601
C    0.943290  5.923688  -0.574384
H    -0.819724  2.207333  4.097914
H    -1.658089  3.677529  3.593344
H    1.090663  1.130026  2.381120
H    2.490093  2.163259  0.571823
H    -1.588308  5.513198  1.703350
H    2.546036  4.524829  -0.986698
H    -0.748158  7.132180  0.016496
H    1.281496  6.645832  -1.317229
N    -4.616045  2.002036  1.527534
C    -4.989111  0.602300  1.660126
H    -5.279448  2.623372  1.075714
H    -6.073367  0.523466  1.518804
H    -4.757713  0.216770  2.661028
H    -4.492633  -0.043143  0.922011
