36
Energy: -23361.0134957 eV PBE+vdW (tier 2 basis)
C    -0.065203  0.163382  -0.067652
C    -0.186476  -0.613701  1.224608
O    0.782749  -1.164745  1.743157
H    0.927173  -0.037807  -0.480027
H    -0.150705  1.241972  0.123902
H    -0.839287  -0.130916  -0.785264
N    -1.405973  -0.675473  1.876330
C    -2.770627  -0.294479  1.512145
C    -3.368054  -1.254808  0.458581
O    -2.810840  -1.437856  -0.623847
H    -1.329941  -1.259811  2.704039
H    -3.334658  -0.383150  2.448994
C    -2.936770  1.178657  1.054468
C    -4.359142  1.646660  1.114661
C    -4.946002  2.311465  2.169772
C    -5.393701  1.461116  0.128114
N    -6.281447  2.538651  1.900930
C    -6.587812  2.034562  0.654506
C    -5.433578  0.868123  -1.147742
C    -7.796457  2.029513  -0.048216
C    -6.633394  0.862060  -1.847510
C    -7.802405  1.435002  -1.305007
H    -2.545528  1.293275  0.035587
H    -2.309849  1.794576  1.714620
H    -4.505659  2.650729  3.102004
H    -6.916480  3.051430  2.496773
H    -4.541017  0.413748  -1.577771
H    -8.699559  2.474727  0.370133
H    -6.674910  0.407373  -2.836981
H    -8.726594  1.413480  -1.881845
N    -4.532500  -1.895732  0.766794
C    -5.423954  -1.689642  1.898384
H    -4.892301  -2.437419  -0.014043
H    -6.188900  -2.473432  1.876110
H    -5.928780  -0.713052  1.864198
H    -4.890827  -1.783058  2.853384
