36
Energy: -23361.3122887 eV PBE+vdW (tier 2 basis)
C    -0.921102  -0.573413  -0.318060
C    -0.577608  -0.362276  1.142935
O    0.584090  -0.424123  1.553455
H    -0.494790  -1.529072  -0.645647
H    -0.443979  0.218967  -0.909003
H    -1.998506  -0.567074  -0.522139
N    -1.637605  -0.065360  1.951429
C    -1.529385  0.007749  3.395073
C    -2.519744  -1.009343  3.986663
O    -3.563234  -1.291327  3.395156
H    -2.581516  -0.229452  1.609071
H    -0.492173  -0.255951  3.643693
C    -1.871657  1.407426  3.954463
C    -0.869577  2.485126  3.676921
C    0.377466  2.378607  3.100172
C    -1.048549  3.873941  4.011363
N    0.977237  3.623396  3.060978
C    0.132371  4.562864  3.609136
C    -2.087847  4.605238  4.611988
C    0.291948  5.939132  3.789200
C    -1.932461  5.975179  4.792254
C    -0.755578  6.635098  4.385286
H    -2.021895  1.320450  5.044860
H    -2.858251  1.693748  3.552995
H    0.879942  1.508041  2.686858
H    1.888035  3.811239  2.666198
H    -3.005006  4.108619  4.931168
H    1.201825  6.451591  3.475156
H    -2.732551  6.552542  5.255169
H    -0.663958  7.709916  4.539703
N    -2.211521  -1.540900  5.201529
C    -0.986354  -1.357098  5.966028
H    -2.915747  -2.176808  5.561857
H    -1.056643  -1.960589  6.876677
H    -0.837913  -0.310708  6.268912
H    -0.099085  -1.689714  5.408711
