36
Energy: -23360.6797465 eV PBE+vdW (tier 2 basis)
C    -1.380684  0.602881  -1.167161
C    -1.086753  1.230213  0.178447
O    -0.437333  2.272544  0.278091
H    -0.862897  -0.360026  -1.267462
H    -1.015501  1.288604  -1.936157
H    -2.454185  0.434667  -1.317429
N    -1.548838  0.614644  1.316679
C    -2.450494  -0.513434  1.526871
C    -2.064602  -1.719291  0.618354
O    -0.944390  -2.200877  0.784239
H    -1.235525  1.096899  2.154477
H    -2.128633  -0.941237  2.489055
C    -3.927228  -0.085390  1.786438
C    -4.603938  0.918971  0.896853
C    -4.136488  2.147148  0.467740
C    -5.961279  0.820918  0.417155
N    -5.110115  2.787486  -0.270239
C    -6.241196  2.005182  -0.324052
C    -6.976251  -0.144664  0.545169
C    -7.472655  2.230408  -0.945050
C    -8.203654  0.076237  -0.067397
C    -8.449095  1.249773  -0.808736
H    -3.933189  0.306717  2.817493
H    -4.539002  -0.998449  1.837882
H    -3.183202  2.634720  0.634614
H    -4.998789  3.692150  -0.707124
H    -6.811013  -1.053640  1.124786
H    -7.664404  3.142416  -1.510852
H    -8.995187  -0.666406  0.029749
H    -9.422214  1.393919  -1.276990
N    -2.931620  -2.304133  -0.258076
C    -4.190659  -1.862125  -0.831990
H    -2.511310  -3.134154  -0.667427
H    -4.291573  -0.774522  -0.783708
H    -5.061084  -2.310062  -0.330738
H    -4.219541  -2.152671  -1.889439
