36
Energy: -23361.3547006 eV PBE+vdW (tier 2 basis)
C    -1.209781  2.475204  0.536129
C    -0.917146  1.797298  1.859746
O    -0.101996  2.244979  2.670116
H    -0.286234  2.918356  0.149941
H    -1.930964  3.285923  0.713455
H    -1.636027  1.795097  -0.211846
N    -1.646587  0.674186  2.107063
C    -1.575835  -0.041592  3.358043
C    -2.117330  -1.449571  3.098896
O    -2.885832  -1.680377  2.163836
H    -2.339467  0.326288  1.448941
H    -0.521537  -0.077187  3.670433
C    -2.380435  0.661992  4.507069
C    -3.769531  1.056180  4.120965
C    -4.896156  0.263274  4.146237
C    -4.180293  2.325581  3.579623
N    -5.976654  0.966147  3.653946
C    -5.573573  2.234634  3.295095
C    -3.512748  3.534405  3.312372
C    -6.298929  3.298751  2.752034
C    -4.231105  4.593614  2.770774
C    -5.608450  4.477750  2.491230
H    -1.801980  1.550026  4.793527
H    -2.395951  -0.000977  5.384028
H    -5.008794  -0.768116  4.463348
H    -6.914838  0.602173  3.563862
H    -2.447666  3.639226  3.520742
H    -7.364765  3.210499  2.539185
H    -3.723293  5.534593  2.559428
H    -6.142207  5.327333  2.066063
N    -1.758366  -2.428127  3.981788
C    -0.716328  -2.373293  4.996995
H    -2.148122  -3.335833  3.749040
H    -0.650824  -3.356656  5.474028
H    -0.940946  -1.638897  5.782133
H    0.269932  -2.136873  4.570683
