36
Energy: -23361.4202342 eV PBE+vdW (tier 2 basis)
C    -0.435786  -1.017865  0.197178
C    -0.564482  -0.389661  1.572333
O    0.287997  -0.547061  2.448721
H    -0.343454  -2.104692  0.314418
H    0.490317  -0.659308  -0.269262
H    -1.280015  -0.798743  -0.467858
N    -1.686611  0.358929  1.770630
C    -1.967168  1.010016  3.034140
C    -3.492576  1.138233  3.123398
O    -4.143359  1.369493  2.097379
H    -2.395128  0.478404  1.051068
H    -1.545070  0.379412  3.826980
C    -1.276618  2.407265  3.105955
C    -1.373857  3.085638  4.434168
C    -0.470169  2.974087  5.468438
C    -2.436647  3.929837  4.915086
N    -0.914843  3.691167  6.562319
C    -2.116172  4.294333  6.255279
C    -3.636341  4.402680  4.353008
C    -2.947702  5.108927  7.029541
C    -4.465712  5.210546  5.121028
C    -4.125826  5.560697  6.444394
H    -1.707513  3.036042  2.312895
H    -0.223000  2.235682  2.848514
H    0.467894  2.429525  5.506346
H    -0.409603  3.801232  7.430535
H    -3.916276  4.133974  3.334037
H    -2.686187  5.379728  8.052874
H    -5.396997  5.583823  4.695607
H    -4.797881  6.197673  7.018815
N    -4.105595  1.006685  4.327987
C    -3.545460  0.806382  5.652630
H    -5.103880  1.192337  4.272736
H    -4.097235  0.012690  6.174313
H    -3.591970  1.728863  6.249361
H    -2.497217  0.505481  5.583045
