36
Energy: -23360.9877921 eV PBE+vdW (tier 2 basis)
C    -0.029141  -0.569713  1.527365
C    -1.126946  -0.779258  2.548987
O    -1.027998  -1.599279  3.460043
H    0.179942  0.488006  1.329443
H    -0.306861  -1.026040  0.566892
H    0.871680  -1.063357  1.901099
N    -2.280898  -0.036000  2.427168
C    -2.632265  1.028191  1.486226
C    -2.501066  0.562474  0.012786
O    -1.751122  1.115257  -0.789924
H    -2.941395  -0.230314  3.173545
H    -3.705540  1.204931  1.652371
C    -1.903944  2.378822  1.738634
C    -2.832500  3.552174  1.787064
C    -3.255296  4.196826  2.929299
C    -3.499531  4.200998  0.685649
N    -4.145294  5.202143  2.602887
C    -4.315740  5.232809  1.235453
C    -3.479899  4.024745  -0.710540
C    -5.102521  6.070877  0.440404
C    -4.261947  4.857517  -1.501883
C    -5.065874  5.867398  -0.934902
H    -1.150731  2.515554  0.950016
H    -1.374880  2.295219  2.696599
H    -2.978500  4.019327  3.963723
H    -4.571654  5.839818  3.260434
H    -2.855425  3.252738  -1.159166
H    -5.719401  6.855948  0.878883
H    -4.252241  4.732615  -2.584539
H    -5.666149  6.503191  -1.585349
N    -3.272249  -0.498962  -0.362524
C    -4.230562  -1.260566  0.421621
H    -3.130787  -0.767584  -1.331002
H    -4.875004  -0.599807  1.016993
H    -3.745419  -1.977293  1.099271
H    -4.878776  -1.813123  -0.267420
