36
Energy: -23361.4494621 eV PBE+vdW (tier 2 basis)
C    -1.269024  1.814725  2.099339
C    -1.083758  0.558604  2.928161
O    -0.428919  0.541324  3.967879
H    -0.778092  2.641371  2.618875
H    -2.332020  2.052686  1.955162
H    -0.819752  1.702708  1.102187
N    -1.696666  -0.584612  2.467870
C    -2.490446  -0.766958  1.267258
C    -3.976229  -0.361828  1.391650
O    -4.677260  -0.281387  0.382514
H    -1.528537  -1.415316  3.035425
H    -2.093687  -0.140101  0.456328
C    -2.388318  -2.245252  0.792339
C    -2.705789  -3.250054  1.856008
C    -1.783400  -3.930598  2.626013
C    -4.005624  -3.669427  2.319439
N    -2.433736  -4.738355  3.536282
C    -3.796259  -4.601672  3.376226
C    -5.324980  -3.363848  1.937727
C    -4.852633  -5.210853  4.059980
C    -6.376191  -3.968884  2.615062
C    -6.144209  -4.879282  3.666711
H    -1.365154  -2.406531  0.424931
H    -3.063961  -2.352834  -0.066806
H    -0.698887  -3.915591  2.577452
H    -1.979839  -5.345090  4.204957
H    -5.520730  -2.661102  1.127921
H    -4.672763  -5.920262  4.868081
H    -7.402062  -3.740741  2.326408
H    -6.992028  -5.335632  4.176898
N    -4.418857  -0.137074  2.653312
C    -5.812042  0.111780  2.963820
H    -3.757586  -0.295908  3.406105
H    -5.908109  0.947398  3.668722
H    -6.288097  -0.781770  3.394804
H    -6.324149  0.364625  2.029303
