36
Energy: -23361.0684062 eV PBE+vdW (tier 2 basis)
C    -1.612738  0.920125  -0.323068
C    -0.318049  0.682750  0.429426
O    0.774111  1.039352  -0.008342
H    -1.361618  1.248297  -1.334822
H    -2.209103  1.703604  0.166149
H    -2.243425  0.022120  -0.369679
N    -0.410718  0.066115  1.654686
C    -1.603608  -0.461754  2.293970
C    -2.694830  0.570009  2.649256
O    -3.877980  0.261372  2.507933
H    0.493389  -0.151161  2.068119
H    -2.120666  -1.160161  1.617425
C    -1.239374  -1.255784  3.576426
C    -0.210804  -2.318612  3.350196
C    -0.425736  -3.585566  2.852536
C    1.209585  -2.196465  3.549977
N    0.776862  -4.250826  2.730908
C    1.801291  -3.429562  3.148644
C    2.045774  -1.171574  4.030541
C    3.178744  -3.654128  3.210861
C    3.416240  -1.390733  4.090580
C    3.976877  -2.618306  3.684305
H    -2.175939  -1.687807  3.953417
H    -0.887196  -0.560110  4.352948
H    -1.355716  -4.069718  2.572866
H    0.885897  -5.198946  2.398451
H    1.630466  -0.217274  4.358943
H    3.614453  -4.603316  2.898192
H    4.072265  -0.602071  4.457411
H    5.055726  -2.758159  3.741991
N    -2.341900  1.791766  3.150546
C    -1.033003  2.359341  3.447374
H    -3.154375  2.366700  3.350707
H    -1.185406  3.241477  4.079719
H    -0.488085  2.667769  2.544958
H    -0.399955  1.659829  4.007108
