36
Energy: -23361.0271027 eV PBE+vdW (tier 2 basis)
C    -0.010100  -0.796652  -0.006306
C    -0.182199  -0.008287  1.280880
O    0.217881  1.150787  1.381996
H    1.047053  -0.767224  -0.295827
H    -0.581614  -0.297007  -0.798945
H    -0.334629  -1.842171  0.060731
N    -0.792151  -0.693760  2.296435
C    -1.188754  -0.151796  3.602132
C    -2.530450  0.626625  3.460887
O    -3.566895  -0.048260  3.465415
H    -1.200840  -1.589109  2.058153
H    -1.521019  -1.034161  4.165590
C    -0.017698  0.462645  4.380679
C    -0.390450  0.932439  5.754143
C    -1.515219  0.626225  6.491343
C    0.395760  1.821547  6.568875
N    -1.464281  1.270952  7.713337
C    -0.307498  2.014435  7.792686
C    1.623181  2.480575  6.380829
C    0.179775  2.835079  8.813447
C    2.109827  3.298961  7.393343
C    1.396666  3.473691  8.596714
H    0.439940  1.278975  3.811602
H    0.760363  -0.317093  4.445118
H    -2.370262  0.005843  6.243026
H    -2.181288  1.222853  8.423468
H    2.185805  2.353047  5.455483
H    -0.370695  2.972205  9.744647
H    3.059691  3.815922  7.258931
H    1.805734  4.121279  9.371759
N    -2.584448  1.973840  3.299963
C    -1.544102  2.995657  3.317099
H    -3.546018  2.294235  3.230827
H    -1.173021  3.186981  4.334930
H    -1.982583  3.922365  2.930939
H    -0.713533  2.713379  2.661247
