36
Energy: -23361.4724079 eV PBE+vdW (tier 2 basis)
C    -3.195339  -3.545960  1.142646
C    -2.122529  -2.646386  1.718777
O    -1.019442  -2.509124  1.171176
H    -2.823618  -4.578253  1.121763
H    -3.382428  -3.244425  0.104795
H    -4.138715  -3.513733  1.701024
N    -2.445781  -2.011251  2.876026
C    -1.607534  -0.969637  3.470809
C    -0.492005  -1.591943  4.358648
O    -0.507706  -1.515102  5.586468
H    -3.394583  -2.107727  3.223533
H    -1.121180  -0.448463  2.630698
C    -2.455520  0.025943  4.280075
C    -3.668224  0.508509  3.546017
C    -3.747701  1.566647  2.668073
C    -4.971597  -0.102930  3.555305
N    -5.018923  1.641334  2.130857
C    -5.794941  0.629238  2.650365
C    -5.527789  -1.202228  4.236875
C    -7.128175  0.287671  2.409701
C    -6.852553  -1.547706  3.994542
C    -7.643439  -0.811868  3.089118
H    -1.803877  0.866353  4.553489
H    -2.733167  -0.446780  5.232918
H    -2.985067  2.282184  2.378364
H    -5.334183  2.344337  1.477015
H    -4.938938  -1.764488  4.964471
H    -7.744436  0.858440  1.714506
H    -7.293401  -2.394401  4.519994
H    -8.679256  -1.105700  2.922603
N    0.476230  -2.206079  3.631318
C    1.562490  -2.942062  4.246289
H    0.294907  -2.302416  2.626590
H    1.414193  -4.029802  4.164777
H    1.600489  -2.673975  5.307475
H    2.518739  -2.683212  3.772902
