36
Energy: -23361.0385143 eV PBE+vdW (tier 2 basis)
C    -1.363587  0.421259  0.197851
C    -0.646359  0.255599  1.527459
O    0.575186  0.304046  1.624575
H    -0.991472  1.328795  -0.291867
H    -2.456139  0.479125  0.281821
H    -1.104002  -0.428075  -0.447192
N    -1.464205  0.063787  2.610836
C    -0.990548  -0.240762  3.960034
C    0.206012  0.648188  4.396255
O    1.252238  0.163578  4.812573
H    -2.460353  -0.014302  2.445224
H    -1.826452  0.009218  4.634006
C    -0.651308  -1.737147  4.156862
C    -0.826760  -2.188792  5.572186
C    0.136767  -2.257928  6.553157
C    -2.064938  -2.583744  6.191064
N    -0.430715  -2.682194  7.738749
C    -1.780599  -2.889527  7.554821
C    -3.387949  -2.713669  5.733214
C    -2.767870  -3.313363  8.447543
C    -4.374158  -3.132143  6.619624
C    -4.067676  -3.428605  7.962997
H    0.376535  -1.903398  3.813179
H    -1.318372  -2.314560  3.499564
H    1.189336  -2.005711  6.491968
H    0.068716  -2.811742  8.607459
H    -3.639769  -2.496456  4.693796
H    -2.532344  -3.546218  9.486546
H    -5.402296  -3.237504  6.273478
H    -4.861610  -3.756067  8.633646
N    0.010569  2.002710  4.397569
C    -1.121224  2.772710  3.919526
H    0.854505  2.511114  4.641728
H    -1.097483  3.760758  4.394834
H    -2.069089  2.298140  4.202109
H    -1.115347  2.912171  2.826852
