36
Energy: -23361.1638576 eV PBE+vdW (tier 2 basis)
C    -0.630765  0.733135  -0.803160
C    -0.015834  0.721993  0.583229
O    1.168415  0.988030  0.781674
H    0.163670  0.941227  -1.524121
H    -1.407192  1.506836  -0.889664
H    -1.101626  -0.228629  -1.049653
N    -0.844450  0.397485  1.630485
C    -2.284882  0.230103  1.590186
C    -3.145788  1.506084  1.417170
O    -4.267835  1.382365  0.921719
H    -0.392750  0.460512  2.540246
H    -2.545718  -0.360614  0.700857
C    -2.791916  -0.572023  2.816015
C    -2.593693  0.110393  4.134257
C    -3.492931  0.951545  4.753804
C    -1.421981  0.081250  4.972882
N    -2.943168  1.453743  5.915866
C    -1.675527  0.938257  6.084083
C    -0.183571  -0.585180  4.904175
C    -0.738706  1.145139  7.099983
C    0.750691  -0.378464  5.911364
C    0.477295  0.478124  6.996657
H    -2.286625  -1.549071  2.808390
H    -3.859687  -0.761833  2.646869
H    -4.491058  1.239754  4.440596
H    -3.417040  2.064328  6.567070
H    0.042892  -1.260611  4.078037
H    -0.950459  1.803992  7.942482
H    1.712961  -0.886933  5.863983
H    1.231852  0.619133  7.769736
N    -2.678024  2.733965  1.785916
C    -1.494712  3.135325  2.541365
H    -3.359498  3.459194  1.583649
H    -1.657805  4.161319  2.890298
H    -0.579597  3.123401  1.934827
H    -1.343003  2.507426  3.426920
