24
Energy: -577769.4120206  eV PBE+vdW (tier 2 basis)
C    -0.123395  -0.079011  0.155342
C    -0.089701  -0.347344  1.631435
O    0.988162  -0.837553  2.085048
H    -1.120831  0.193537  -0.208435
H    0.234468  -0.967776  -0.380018
H    0.581798  0.734869  -0.067594
N    -1.193096  -0.043649  2.344210
C    -1.531960  -0.241125  3.768577
C    -0.731956  0.692928  4.706450
O    0.354353  0.340436  5.281755
H    -1.946964  0.346515  1.784629
H    -2.576609  0.087408  3.841440
C    -1.524412  -1.710479  4.246780
S    -2.741336  -2.811173  3.495592
H    -1.753741  -1.730913  5.321454
H    -0.524517  -2.197289  4.133422
H    -2.342373  -2.662743  2.206026
N    -1.216887  1.892634  4.987615
C    -2.514833  2.477221  4.622478
H    -0.617110  2.449606  5.601654
H    -2.571712  3.468241  5.081272
H    -3.348248  1.876865  5.009803
H    -2.599863  2.598620  3.535689
Hg    1.629762  -1.170822  4.222377
