24
Energy: -577769.0465856  eV PBE+vdW (tier 2 basis)
C    0.150051  -0.046498  0.096607
C    0.052021  0.093124  1.576051
O    1.106178  0.098563  2.272755
H    0.472358  0.908158  -0.347250
H    -0.791495  -0.380186  -0.352631
H    0.941177  -0.773603  -0.133693
N    -1.147434  0.191091  2.215431
C    -2.252667  1.058623  1.833527
C    -1.886244  2.441164  2.457801
O    -1.224724  2.470587  3.532603
H    -1.048962  0.131231  3.231623
H    -2.311804  1.118416  0.739770
C    -3.566210  0.445931  2.423699
S    -5.134496  1.265793  2.018341
H    -3.512757  0.471938  3.521960
H    -3.625046  -0.601758  2.105743
H    -5.339572  0.662761  0.817820
N    -2.256445  3.578475  1.861793
C    -3.161367  3.743107  0.740029
H    -1.918559  4.423151  2.330427
H    -3.360574  4.808354  0.598035
H    -4.120998  3.220502  0.941420
H    -2.736904  3.324687  -0.184127
Hg    1.113464  1.705073  4.009582
