24
Energy: -577769.7191695  eV PBE+vdW (tier 2 basis)
C    0.023026  0.308647  -0.040940
C    0.057456  0.265355  1.453625
O    1.057476  0.839159  2.003120
H    -0.005688  1.362017  -0.358496
H    -0.846178  -0.213017  -0.457374
H    0.951734  -0.120260  -0.439500
N    -0.947947  -0.354329  2.101405
C    -1.372590  -0.222543  3.511134
C    -0.789572  -1.325893  4.433461
O    0.364349  -1.182899  4.999026
H    -1.633664  -0.792291  1.485551
H    -0.957042  0.723959  3.898032
C    -2.903428  -0.038258  3.585052
S    -3.810530  -1.460817  2.838084
H    -3.169338  0.882200  3.050317
H    -3.198993  0.075215  4.635267
H    -5.000466  -1.201372  3.433406
N    -1.486728  -2.404118  4.694616
C    -1.049612  -3.511606  5.553578
H    -2.437030  -2.443427  4.275027
H    -1.210485  -3.253986  6.608832
H    0.013599  -3.715113  5.391707
H    -1.647003  -4.391851  5.300480
Hg    1.625309  0.326520  4.061568
