24
Energy: -577769.6421424  eV PBE+vdW (tier 2 basis)
C    -1.654761  -0.047682  -0.509111
C    -1.155629  -0.531682  0.818886
O    -0.243877  -1.417291  0.785361
H    -1.995277  -0.906146  -1.102275
H    -0.813776  0.407105  -1.053021
H    -2.460177  0.689228  -0.412168
N    -1.689519  0.004839  1.934766
C    -1.158837  -0.049821  3.309824
C    -1.787686  -1.217815  4.114710
O    -1.219056  -2.365130  4.159567
H    -2.439304  0.673921  1.768591
H    -0.084104  -0.275977  3.246456
C    -1.273194  1.337243  3.977879
S    -0.577498  1.326294  5.666084
H    -2.322712  1.663261  4.061339
H    -0.759020  2.083548  3.361985
H    0.605814  1.911741  5.356338
N    -2.928266  -1.042852  4.751866
C    -3.617562  -2.084497  5.527691
H    -3.328323  -0.107432  4.778107
H    -3.181952  -2.154080  6.533075
H    -3.512168  -3.048876  5.021682
H    -4.673890  -1.812519  5.605060
Hg    0.228777  -2.751381  2.514309
