24
Energy: -577770.4887623  eV PBE+vdW (tier 2 basis)
C    -0.799606  0.632647  -0.369774
C    -0.404107  0.619479  1.075352
O    0.829393  0.649393  1.343473
H    -0.479269  1.590979  -0.805055
H    -1.876621  0.512738  -0.530559
H    -0.252250  -0.155353  -0.901941
N    -1.409964  0.590753  1.987321
C    -1.432270  0.810852  3.450212
C    -0.538932  1.984961  3.930506
O    0.669268  1.837848  4.284494
H    -2.335538  0.557427  1.566943
H    -2.465916  1.139563  3.641638
C    -1.352586  -0.463499  4.337324
S    0.064656  -1.663565  4.291773
H    -2.230068  -1.096146  4.147812
H    -1.386319  -0.162638  5.393928
H    -0.210244  -2.233821  3.085714
N    -1.118632  3.175368  4.002795
C    -0.430195  4.401586  4.419704
H    -2.117614  3.246098  3.821743
H    0.634256  4.319245  4.183524
H    -0.549044  4.550964  5.501187
H    -0.874303  5.248133  3.886899
Hg    1.666904  0.024990  3.340984
