24
Energy: -577769.7444820  eV PBE+vdW (tier 2 basis)
C    -0.268743  0.292253  -0.065063
C    -0.247214  0.172270  1.427448
O    0.771535  0.384066  2.104338
H    -0.150164  1.355669  -0.320632
H    -1.196107  -0.080761  -0.513927
H    0.594484  -0.238006  -0.484425
N    -1.413687  -0.186868  2.061519
C    -1.536770  -0.128724  3.517011
C    -0.941155  -1.403597  4.182164
O    -1.617979  -2.244328  4.877808
H    -2.192767  -0.522165  1.501016
H    -0.894031  0.711033  3.834625
C    -3.007298  0.205944  3.833506
S    -3.495526  0.732482  5.534738
H    -3.693076  -0.623824  3.607778
H    -3.307073  1.065040  3.215487
H    -2.397424  1.476586  5.854750
N    0.337081  -1.610506  3.927046
C    1.158014  -2.688881  4.458653
H    0.770045  -0.926557  3.260249
H    2.149237  -2.285457  4.699368
H    1.285438  -3.465680  3.688905
H    0.689299  -3.132026  5.340505
Hg    -2.733124  -1.461602  6.656681
