24
Energy: -577769.0170848  eV PBE+vdW (tier 2 basis)
C    0.072038  -0.053013  0.023698
C    0.012979  0.013997  1.509091
O    1.075060  0.287542  2.151530
H    -0.813412  0.391259  -0.443844
H    0.173668  -1.104075  -0.294567
H    0.972691  0.470343  -0.319327
N    -1.129505  -0.175605  2.221944
C    -2.136751  -1.220141  2.040877
C    -1.432111  -2.588159  2.269338
O    -0.193192  -2.656263  2.537941
H    -1.050466  0.154047  3.184446
H    -2.832783  -1.081315  2.881797
C    -2.970912  -1.100605  0.729120
S    -4.513551  -2.069380  0.724527
H    -2.416605  -1.459798  -0.146119
H    -3.224773  -0.044869  0.571813
H    -5.189733  -1.331113  1.644242
N    -2.161887  -3.689670  2.161162
C    -1.739567  -5.037693  2.531744
H    -3.104199  -3.574289  1.748615
H    -2.604304  -5.574724  2.938266
H    -0.935114  -4.987698  3.269634
H    -1.383974  -5.575366  1.639699
Hg    1.484413  -1.378070  3.700826
