24
Energy: -577769.4524217  eV PBE+vdW (tier 2 basis)
C    -0.242062  -0.576566  0.250757
C    -0.205230  0.020537  1.626335
O    0.944677  0.221496  2.121533
H    0.388841  -1.473739  0.227259
H    0.193673  0.146545  -0.454315
H    -1.260496  -0.824621  -0.070284
N    -1.380498  0.307406  2.225660
C    -1.563558  1.113476  3.437756
C    -1.403593  0.283789  4.740773
O    -0.369457  0.474565  5.473517
H    -2.209026  0.095741  1.673787
H    -0.735231  1.836295  3.478706
C    -2.842289  1.978560  3.361863
S    -2.989783  3.100011  4.789285
H    -3.760087  1.388258  3.255011
H    -2.762231  2.632228  2.482950
H    -3.523279  2.207030  5.660391
N    -2.289042  -0.611449  5.149797
C    -3.598523  -0.975931  4.603047
H    -2.025713  -1.070881  6.025627
H    -4.390869  -0.322756  4.993595
H    -3.816138  -2.000902  4.921374
H    -3.594534  -0.955839  3.510048
Hg    1.478451  0.814746  4.241529
