24
Energy: -577769.6133649  eV PBE+vdW (tier 2 basis)
C    -0.111566  0.088460  -0.150746
C    -0.009081  -0.012124  1.343351
O    1.110544  -0.402094  1.797364
H    -1.127297  0.308254  -0.497732
H    0.227854  -0.858090  -0.592516
H    0.578424  0.870201  -0.498421
N    -1.100962  0.309903  2.063101
C    -1.463242  0.160935  3.496231
C    -0.909209  1.313908  4.372028
O    0.313106  1.413435  4.717722
H    -1.879741  0.621791  1.487763
H    -2.556132  0.271372  3.491585
C    -1.189729  -1.239724  4.078881
S    -2.180694  -1.493635  5.570140
H    -0.110384  -1.394523  4.341706
H    -1.425148  -2.003798  3.326382
H    -2.110918  -2.849035  5.559100
N    -1.771332  2.226253  4.784213
C    -1.412262  3.378504  5.623145
H    -2.752291  2.110235  4.539868
H    -1.240652  3.053675  6.657347
H    -2.239513  4.092350  5.596598
H    -0.501517  3.847975  5.236652
Hg    1.797744  -0.072227  3.897240
