24
Energy: -577769.4478590  eV PBE+vdW (tier 2 basis)
C    0.118711  -0.992721  0.522824
C    -0.269717  -0.038212  1.609661
O    0.705197  0.401435  2.317687
H    0.736213  -0.454963  -0.212167
H    -0.758066  -1.415494  0.018290
H    0.738819  -1.794626  0.942552
N    -1.565471  0.269336  1.750131
C    -2.197790  1.384501  2.450338
C    -2.504700  1.084920  3.945461
O    -1.716588  1.568075  4.850231
H    -2.218410  -0.150710  1.060933
H    -1.484071  2.224246  2.505549
C    -3.397053  1.951971  1.601624
S    -4.187559  0.790178  0.436492
H    -3.030178  2.809331  1.029571
H    -4.171635  2.335625  2.276325
H    -3.631591  1.291496  -0.692847
N    -3.549267  0.407265  4.377565
C    -4.681977  -0.175904  3.653273
H    -3.589074  0.332896  5.398203
H    -5.070144  -0.999817  4.261244
H    -4.366785  -0.580036  2.686824
H    -5.484153  0.562116  3.518154
Hg    0.345589  1.584527  4.111113
