24
Energy: -577769.2181987  eV PBE+vdW (tier 2 basis)
C    0.834481  -0.754215  1.793802
C    0.234952  0.606848  1.853890
O    0.995849  1.614847  1.968764
H    1.315044  -0.912974  0.816364
H    0.101955  -1.543959  1.994443
H    1.638551  -0.810323  2.541773
N    -1.112045  0.799381  1.825358
C    -2.011015  0.173641  0.854409
C    -1.980739  1.078282  -0.411196
O    -1.619532  2.285723  -0.309364
H    -1.375348  1.767868  2.024509
H    -1.628438  -0.828077  0.613217
C    -3.437119  0.081023  1.423319
S    -3.368319  -0.786256  3.021891
H    -4.111565  -0.455294  0.740318
H    -3.853848  1.089161  1.578697
H    -4.695407  -0.682157  3.299594
N    -2.397731  0.557606  -1.562235
C    -2.449488  1.270016  -2.838057
H    -2.763755  -0.394144  -1.555619
H    -2.072067  0.611679  -3.629140
H    -1.849320  2.180340  -2.771442
H    -3.489719  1.540842  -3.070346
Hg    0.446721  3.348798  0.521127
