24
Energy: -577769.5313447  eV PBE+vdW (tier 2 basis)
C    -0.099667  0.278499  -0.115066
C    -0.039717  -0.045901  1.349154
O    0.998175  -0.666419  1.736664
H    -1.090742  0.615832  -0.439454
H    0.196589  -0.606497  -0.692453
H    0.642614  1.062183  -0.327618
N    -1.075157  0.347732  2.115644
C    -1.432134  0.107697  3.532827
C    -0.612405  0.968063  4.522538
O    0.553163  0.652837  4.942727
H    -1.787621  0.855872  1.597340
H    -2.467081  0.468526  3.604002
C    -1.483521  -1.378745  3.956578
S    -2.707430  -2.422906  3.141277
H    -1.744420  -1.424178  5.023460
H    -0.492417  -1.887011  3.860964
H    -2.274292  -2.245001  1.866781
N    -1.184202  2.066130  4.986768
C    -0.555021  2.995861  5.932558
H    -2.152957  2.249363  4.732041
H    0.525153  3.018163  5.760564
H    -0.749712  2.672723  6.963969
H    -0.984971  3.989611  5.776363
Hg    1.694767  -0.931431  3.850376
