24
Energy: -577770.4117868  eV PBE+vdW (tier 2 basis)
C    -0.174333  1.031078  0.527207
C    -0.298259  0.285128  1.821171
O    0.537993  0.603169  2.722957
H    -0.416248  2.087732  0.716462
H    -0.832863  0.650193  -0.260905
H    0.869254  0.996995  0.190062
N    -1.278216  -0.646758  1.896524
C    -1.920040  -1.460846  2.970721
C    -2.419332  -0.582748  4.139120
O    -1.604369  -0.070975  4.953412
H    -1.777040  -0.735149  1.014623
H    -2.806677  -1.852659  2.455011
C    -1.196957  -2.780255  3.379332
S    0.043148  -2.934783  4.769683
H    -0.645987  -3.175925  2.515893
H    -1.955715  -3.526707  3.653171
H    -0.795766  -2.683470  5.814179
N    -3.726845  -0.379775  4.268955
C    -4.836951  -0.864698  3.437083
H    -3.969734  0.219002  5.060334
H    -5.765901  -0.477565  3.865318
H    -4.900194  -1.960114  3.444385
H    -4.762166  -0.488254  2.409065
Hg    0.670200  -0.562616  4.538239
