24
Energy: -577769.6448531  eV PBE+vdW (tier 2 basis)
C    -0.150363  0.573560  0.061132
C    -0.011812  0.487408  1.548289
O    1.087619  0.883770  2.051675
H    0.067230  1.605475  -0.250906
H    -1.150930  0.295883  -0.288951
H    0.608535  -0.066019  -0.410185
N    -1.051175  0.012660  2.263689
C    -1.321863  0.178240  3.701922
C    -0.920582  -1.093617  4.482250
O    0.248805  -1.595548  4.333021
H    -1.831092  -0.332899  1.706733
H    -0.650392  0.973199  4.071186
C    -2.779065  0.711225  3.811792
S    -3.482239  0.912471  5.479887
H    -3.479737  0.027582  3.308863
H    -2.825899  1.672929  3.285500
H    -2.558299  1.782870  5.963905
N    -1.769860  -1.685442  5.297742
C    -1.471133  -2.848010  6.135926
H    -2.699543  -1.256103  5.393172
H    -0.403715  -2.875223  6.371879
H    -1.745385  -3.769200  5.602490
H    -2.070655  -2.775346  7.049130
Hg    1.943548  -0.223863  3.808861
