24
Energy: -577770.0670760  eV PBE+vdW (tier 2 basis)
C    0.123744  1.209633  0.017135
C    -0.273970  0.691499  1.359374
O    0.464366  1.119085  2.340883
H    0.212284  2.302771  0.049213
H    -0.576720  0.900616  -0.766026
H    1.123412  0.813484  -0.222399
N    -1.319356  -0.127087  1.451157
C    -1.719709  -1.187945  2.390143
C    -2.317159  -2.279859  1.366306
O    -2.584486  -1.878340  0.237114
H    -1.793936  -0.390882  0.546069
H    -0.844987  -1.631776  2.892707
C    -2.853843  -0.821312  3.380885
S    -2.329288  -0.300284  5.128202
H    -3.470957  -1.704198  3.596393
H    -3.496166  -0.030183  2.978453
H    -3.133059  0.794492  5.270020
N    -2.502818  -3.511387  1.841686
C    -3.052289  -4.602652  1.021290
H    -2.127738  -3.759577  2.752683
H    -3.646606  -5.261227  1.662170
H    -2.241586  -5.176686  0.555497
H    -3.686612  -4.174268  0.240723
Hg    -0.387222  0.822477  4.223256
