24
Energy: -577769.6131592  eV PBE+vdW (tier 2 basis)
C    -0.117932  0.014815  -0.064019
C    -0.029056  0.040175  1.432324
O    1.069719  0.450788  1.921419
H    0.033922  1.036933  -0.440480
H    -1.083532  -0.360825  -0.421365
H    0.699098  -0.600151  -0.463412
N    -1.105018  -0.355959  2.141933
C    -1.370358  -0.129839  3.574449
C    -0.904968  -1.338007  4.424681
O    0.261968  -1.361935  4.947675
H    -1.888095  -0.688086  1.581771
H    -0.752733  0.720791  3.898168
C    -2.836913  0.306347  3.783175
S    -3.176252  0.932413  5.456468
H    -3.559789  -0.480969  3.516137
H    -3.039906  1.157013  3.118375
H    -3.178557  -0.261948  6.100238
N    -1.714467  -2.364445  4.605805
C    -1.365626  -3.580518  5.355501
H    -2.663468  -2.297464  4.243845
H    -2.005619  -4.395420  5.005743
H    -1.527813  -3.423215  6.429817
H    -0.313327  -3.826629  5.184232
Hg    1.744263  0.034610  4.016221
