24
Energy: -577769.3459658  eV PBE+vdW (tier 2 basis)
C    0.584773  -0.603612  0.452034
C    0.038373  0.088889  1.653296
O    0.774799  0.402579  2.645127
H    1.439722  -0.023623  0.076280
H    -0.146492  -0.738219  -0.351860
H    0.978265  -1.589040  0.742012
N    -1.270847  0.411416  1.669581
C    -2.006422  1.135844  2.689967
C    -1.571043  0.800641  4.115435
O    -1.356501  -0.415844  4.445194
H    -1.807839  0.218794  0.819531
H    -1.885094  2.216927  2.520552
C    -3.536006  0.801887  2.559709
S    -4.250867  1.093774  0.922040
H    -4.086942  1.385502  3.308868
H    -3.704065  -0.263066  2.767868
H    -4.139841  2.448559  0.918163
N    -1.558849  1.761392  5.032211
C    -1.808450  3.197395  4.878821
H    -1.374026  1.427782  5.980545
H    -1.432029  3.705752  5.771004
H    -2.882153  3.408002  4.786723
H    -1.274629  3.593009  4.004834
Hg    0.825471  -1.089755  4.383967
