24
Energy: -577768.9856714  eV PBE+vdW (tier 2 basis)
C    -0.187287  0.966579  0.293695
C    0.114390  0.065968  1.436859
O    1.335703  -0.030708  1.760790
H    -1.224016  0.836542  -0.074252
H    0.553612  0.863169  -0.505791
H    -0.129489  2.000378  0.679112
N    -0.841667  -0.526866  2.217156
C    -1.953264  -1.422448  1.888349
C    -1.548236  -2.864734  2.356613
O    -0.356225  -3.293868  2.339578
H    -0.535775  -0.623714  3.186950
H    -2.827904  -1.114743  2.483540
C    -2.345157  -1.472745  0.400077
S    -3.385928  -0.033871  -0.046609
H    -2.941228  -2.374692  0.212145
H    -1.459036  -1.530241  -0.247696
H    -3.767401  -0.507221  -1.262259
N    -2.540941  -3.655358  2.737752
C    -2.388468  -5.059214  3.134930
H    -3.490494  -3.288432  2.694399
H    -3.169820  -5.298896  3.862643
H    -1.399970  -5.206380  3.579057
H    -2.492592  -5.716408  2.261171
Hg    1.652138  -2.102155  2.706024
