24
Energy: -577769.6182933  eV PBE+vdW (tier 2 basis)
C    -1.222502  -0.050835  -0.506492
C    -0.833584  -0.503532  0.865943
O    0.164825  -1.284935  0.950964
H    -1.497085  -0.926462  -1.110380
H    -0.344026  0.403770  -0.987310
H    -2.042665  0.675918  -0.496974
N    -1.548696  -0.051536  1.916259
C    -1.163342  -0.031726  3.336248
C    -1.801914  -1.219010  4.091472
O    -1.613483  -2.416946  3.684488
H    -2.359366  0.514253  1.671051
H    -0.072780  -0.202027  3.382298
C    -1.442241  1.393819  3.865761
S    -0.879802  1.591345  5.602982
H    -2.512962  1.637590  3.799143
H    -0.892549  2.104996  3.235773
H    -1.605574  2.711585  5.850019
N    -2.561751  -1.011209  5.149609
C    -3.168293  -2.058448  5.974265
H    -2.700610  -0.038698  5.443522
H    -2.571060  -2.972399  5.911954
H    -4.186738  -2.268769  5.618751
H    -3.218174  -1.696891  7.006366
Hg    0.258371  -2.889858  2.530287
