24
Energy: -577769.1421691  eV PBE+vdW (tier 2 basis)
C    -0.805775  1.880383  -0.416725
C    0.115497  1.474324  0.680376
O    1.296918  1.934316  0.690907
H    -1.126325  2.923185  -0.270195
H    -1.673989  1.215544  -0.493400
H    -0.249207  1.863032  -1.364938
N    -0.265043  0.597816  1.646848
C    -1.508721  0.672541  2.399630
C    -1.176040  1.515968  3.674477
O    0.023370  1.684866  4.034414
H    0.515277  0.298887  2.236878
H    -2.261324  1.201722  1.800090
C    -2.040548  -0.737608  2.779415
S    -2.631823  -1.718152  1.372791
H    -2.913433  -0.648903  3.438890
H    -1.272521  -1.305266  3.325366
H    -1.418926  -1.944839  0.803148
N    -2.193160  2.005734  4.379068
C    -2.063325  2.822248  5.584650
H    -3.140506  1.747933  4.103217
H    -2.231560  2.199922  6.476233
H    -2.821285  3.613496  5.559789
H    -1.058164  3.247898  5.631362
Hg    2.036128  2.478211  2.829247
