24
Energy: -577769.4728433  eV PBE+vdW (tier 2 basis)
C    -0.376323  0.864916  0.331638
C    -0.368338  0.246366  1.700711
O    0.596340  0.590675  2.451717
H    -1.170092  0.469149  -0.311777
H    0.599362  0.688947  -0.140690
H    -0.492212  1.952633  0.436897
N    -1.363657  -0.606471  2.003050
C    -1.609477  -1.505831  3.162517
C    -2.074359  -0.727633  4.415793
O    -1.261987  -0.343722  5.325403
H    -2.020717  -0.743009  1.238724
H    -2.465414  -2.110969  2.840064
C    -0.468060  -2.504661  3.434549
S    -0.969358  -3.929098  4.428515
H    0.425454  -2.037928  3.906526
H    -0.125859  -2.921226  2.477887
H    -1.245537  -3.253380  5.574393
N    -3.364215  -0.486811  4.587020
C    -4.504592  -0.972105  3.797728
H    -3.581309  0.056454  5.426082
H    -5.419163  -0.644784  4.299890
H    -4.517956  -2.068864  3.748930
H    -4.495341  -0.542978  2.788115
Hg    0.803806  0.276330  4.652318
