15
Energy: -244827.1400988  eV PBE+vdW (tier 2 basis)
N    -0.225357  -0.430863  -0.023021
C    -0.266074  0.428688  1.230526
C    1.193575  0.652620  1.663352
O    1.412813  1.459323  2.606588
H    -0.924837  -1.185533  -0.023822
H    -0.362006  0.127647  -0.876567
H    -0.766412  1.373947  0.988556
C    -0.994854  -0.250090  2.398481
S    0.004476  -1.647602  3.090738
H    -1.978630  -0.628262  2.090407
H    -1.142992  0.509746  3.173428
H    -0.763962  -1.836855  4.189821
O    2.067639  -0.137827  1.175431
H    0.736443  -0.840196  -0.050936
Ba    3.205179  -0.040742  3.529020
