15
Energy: -244827.1713432  eV PBE+vdW (tier 2 basis)
N    2.107057  1.004040  1.535268
C    2.671714  -0.045028  2.451186
C    4.179733  -0.180879  2.229986
O    4.848441  -0.846033  3.080174
H    2.126532  1.948081  1.938813
H    2.635017  1.023084  0.648311
H    2.483348  0.274384  3.484295
C    1.947684  -1.396486  2.187173
S    0.132772  -1.153887  2.078445
H    2.176925  -2.071515  3.018612
H    2.302985  -1.859973  1.259477
H    -0.013209  -1.610676  0.812560
O    4.704641  0.342316  1.190612
H    1.096947  0.708645  1.380024
Ba    7.039412  -0.519075  1.911062
