15
Energy: -244827.1565124  eV PBE+vdW (tier 2 basis)
N    -0.099197  0.265221  0.475476
C    -0.279094  -0.746194  1.549573
C    1.077898  -1.008820  2.191767
O    2.138693  -0.887521  1.558680
H    -0.976935  0.337076  -0.050352
H    0.009943  1.189159  0.909300
H    -0.974477  -0.405815  2.334200
C    -0.863893  -2.053414  0.973761
S    0.071987  -2.835161  -0.405662
H    -1.857533  -1.844023  0.553893
H    -1.005904  -2.801219  1.762391
H    0.889543  -3.619234  0.340361
O    0.999145  -1.413253  3.434165
H    1.885653  -1.609771  3.810722
Ba    2.218171  -0.466028  -0.959277
