15
Energy: -244826.0369690  eV PBE+vdW (tier 2 basis)
N    -0.413344  -0.582769  -0.326267
C    0.037338  -0.236889  0.983237
C    1.559834  -0.391977  1.134410
O    2.298030  -0.463692  0.104695
H    -0.292973  -1.553113  -0.605321
H    -1.331808  -0.230658  -0.580654
H    -0.142151  0.843890  1.131891
C    -0.747199  -1.005070  2.081056
S    -0.332866  -0.472278  3.832671
H    -0.617709  -2.092246  2.021525
H    -1.814607  -0.762534  2.001058
H    -1.370024  -1.080229  4.483099
O    2.059922  -0.387768  2.319828
H    0.558943  -1.433581  4.177963
Ba    4.440902  -0.215355  1.270036
