15
Energy: -244827.2252440  eV PBE+vdW (tier 2 basis)
N    -0.058212  -1.348623  0.747729
C    -0.154042  -0.160289  1.664012
C    1.274897  0.202728  2.111861
O    2.261265  -0.327505  1.498188
H    -0.207878  -2.186345  1.380118
H    -0.760070  -1.347175  -0.002011
H    -0.529961  0.698899  1.088054
C    -1.120427  -0.463879  2.827009
S    -0.768490  -2.109760  3.561097
H    -2.159124  -0.432236  2.481609
H    -0.997475  0.311594  3.590720
H    -1.970720  -2.674036  3.301157
O    1.418976  1.043128  3.049676
H    0.895398  -1.396580  0.349432
Ba    3.927863  1.040078  2.930347
