15
Energy: -244826.4543388  eV PBE+vdW (tier 2 basis)
N    0.815327  -0.113257  0.746038
C    0.090004  -0.338762  2.036522
C    1.158846  -0.275298  3.147941
O    1.944496  0.704690  3.137357
H    1.227302  -1.000537  0.432788
H    0.123496  0.111680  0.023465
H    -0.512454  0.568733  2.211557
C    -0.902062  -1.513177  2.082009
S    -0.069172  -3.144118  2.315539
H    -1.496670  -1.526494  1.159611
H    -1.593034  -1.354458  2.919018
H    -1.105439  -3.754805  2.938044
O    1.255597  -1.181113  4.055087
H    0.735599  -2.031612  3.768035
Ba    2.845266  1.898474  1.242805
