24
Energy:  -42917.7587775  eV PBE+vdW (tier 2 basis)
C    -0.099706  0.870388  0.300309
C    -0.375492  0.337099  1.666393
O    0.418154  0.606479  2.624516
H    0.013605  1.961511  0.349112
H    -0.870934  0.618123  -0.434445
H    0.864912  0.466797  -0.041378
N    -1.465467  -0.423210  1.845365
C    -1.877316  -1.224224  3.025102
C    -2.268844  -0.350006  4.231724
O    -1.376953  0.313422  4.862937
H    -2.025525  -0.573946  1.009821
H    -2.777617  -1.750818  2.690699
C    -0.846710  -2.297643  3.425233
S    -1.371619  -3.218460  4.909629
H    0.127134  -1.855357  3.669747
H    -0.675807  -2.977921  2.582867
H    -2.184262  -4.094311  4.272874
N    -3.528533  -0.274215  4.614653
C    -4.695976  -1.000908  4.099829
H    -3.680404  0.302632  5.443395
H    -4.823858  -0.838153  3.023845
H    -5.582397  -0.610601  4.607063
H    -4.609556  -2.072541  4.320140
Ca    0.584173  1.071860  4.675573
