24
Energy:  -42917.7035802  eV PBE+vdW (tier 2 basis)
C    -0.015636  0.870067  0.345212
C    -0.273426  0.263708  1.683992
O    0.535320  0.478570  2.644039
H    -0.800043  0.662868  -0.389695
H    0.940424  0.479173  -0.033612
H    0.106675  1.956095  0.451174
N    -1.362506  -0.501293  1.837968
C    -1.762767  -1.378620  2.966365
C    -2.130797  -0.597076  4.237567
O    -1.231330  0.033917  4.893572
H    -1.934972  -0.603200  1.003283
H    -2.670551  -1.875146  2.608361
C    -0.743065  -2.496308  3.270395
S    -1.409299  -3.733324  4.432591
H    0.221294  -2.110271  3.621410
H    -0.544720  -3.042049  2.338870
H    -1.126631  -3.060261  5.572691
N    -3.374031  -0.604256  4.676044
C    -4.542657  -1.312099  4.131115
H    -3.516665  -0.090792  5.547227
H    -5.400546  -1.072707  4.765005
H    -4.378425  -2.396444  4.154360
H    -4.767801  -0.976210  3.112198
Ca    0.713155  0.851658  4.705869
