24
Energy:  -42917.8784152  eV PBE+vdW (tier 2 basis)
C    -0.656229  1.361098  0.959437
C    -0.304392  0.785083  2.288352
O    0.920853  0.669387  2.637581
H    -0.123992  0.821050  0.165694
H    -0.299830  2.401656  0.928925
H    -1.731695  1.347896  0.756330
N    -1.287878  0.406537  3.103097
C    -1.189562  0.000944  4.506325
C    -0.690303  -1.455769  4.637041
O    0.526922  -1.700414  4.342073
H    -2.269177  0.479787  2.786625
H    -0.394678  0.601074  4.979882
C    -2.523190  0.358974  5.214818
S    -4.056169  0.174662  4.236825
H    -2.504475  1.434303  5.436030
H    -2.598785  -0.140942  6.188529
H    -4.133014  -1.178564  4.208243
N    -1.500824  -2.398833  5.071563
C    -1.155507  -3.808485  5.272540
H    -2.453079  -2.125424  5.302681
H    -1.416565  -4.099765  6.296535
H    -0.085125  -3.947088  5.109645
H    -1.721700  -4.429561  4.567354
Ca    2.230392  -0.738605  3.479873
