24
Energy:  -42917.0485440  eV PBE+vdW (tier 2 basis)
C    -0.022240  0.195860  -0.056428
C    -0.146096  0.009127  1.414033
O    0.879208  -0.231818  2.134376
H    0.509821  1.130312  -0.290073
H    -0.984350  0.176134  -0.575972
H    0.612035  -0.617325  -0.439234
N    -1.352311  0.087997  2.024379
C    -2.275264  1.201284  1.813062
C    -1.588535  2.482783  2.364164
O    -0.514160  2.378532  3.062090
H    -1.345708  -0.257463  2.986231
H    -2.452122  1.326681  0.736116
C    -3.627146  0.894904  2.503123
S    -4.579274  -0.408642  1.672233
H    -4.269589  1.782074  2.473320
H    -3.471065  0.661874  3.566700
H    -3.892518  -1.462581  2.171344
N    -2.100776  3.674269  2.126460
C    -3.272702  4.040485  1.322610
H    -1.605658  4.448828  2.572020
H    -3.031271  4.946853  0.757041
H    -4.131298  4.249793  1.973436
H    -3.530613  3.247468  0.615457
Ca    1.286248  1.323242  3.571005
