24
Energy:  -42917.8108797  eV PBE+vdW (tier 2 basis)
C    -0.214535  -0.965987  0.162276
C    -0.051319  -0.243210  1.455941
O    1.078018  -0.245043  2.047742
H    -1.198819  -0.825876  -0.295612
H    -0.059299  -2.039605  0.347398
H    0.566153  -0.647896  -0.540691
N    -1.110347  0.392684  1.968754
C    -1.297552  0.977396  3.312939
C    -0.438843  2.227189  3.566146
O    0.830167  2.149162  3.665930
H    -1.970083  0.287641  1.436146
H    -2.348892  1.292682  3.319659
C    -1.130496  -0.053547  4.460486
S    -2.166777  -1.534888  4.261173
H    -1.336500  0.438410  5.419433
H    -0.099175  -0.427294  4.504889
H    -3.298845  -1.003093  4.779760
N    -1.076053  3.368945  3.757167
C    -0.457098  4.650705  4.101658
H    -2.088180  3.366676  3.649343
H    -1.020782  5.107926  4.922428
H    -0.481951  5.321320  3.233297
H    0.576722  4.484649  4.411422
Ca    2.448378  0.858030  3.190494
