24
Energy:  -42917.5631220  eV PBE+vdW (tier 2 basis)
C    0.695502  0.735986  0.690656
C    0.397918  -0.330126  1.695839
O    1.250024  -1.265304  1.883202
H    1.584018  1.287543  1.032710
H    -0.126991  1.444289  0.549852
H    0.958113  0.280729  -0.272710
N    -0.759887  -0.252232  2.348155
C    -1.357646  -0.885729  3.527042
C    -0.959467  -2.308152  3.890322
O    -0.520888  -3.148512  3.033484
H    -1.370902  0.544558  2.090903
H    -1.107651  -0.241463  4.385458
C    -2.916566  -0.850482  3.343391
S    -3.522486  0.807957  2.863983
H    -3.391966  -1.116801  4.292937
H    -3.222935  -1.585663  2.591242
H    -3.939539  0.468905  1.622299
N    -1.147825  -2.708924  5.141702
C    -1.639783  -1.981912  6.317321
H    -0.969496  -3.704047  5.282861
H    -1.117039  -2.365326  7.199681
H    -2.717200  -2.144480  6.449318
H    -1.437607  -0.910043  6.236882
Ca    1.250836  -3.356051  1.880426
