24
Energy:  -42917.8410741  eV PBE+vdW (tier 2 basis)
C    -0.040755  0.083850  -0.128061
C    -0.045458  0.092723  1.363738
O    1.051226  -0.011574  2.003090
H    -1.030307  0.234028  -0.571394
H    0.359914  -0.882641  -0.468086
H    0.645036  0.857967  -0.497034
N    -1.220474  0.209187  1.997823
C    -1.528031  0.069797  3.443164
C    -0.933516  1.209501  4.294806
O    0.324597  1.295955  4.482072
H    -2.032915  0.288449  1.390854
H    -2.621001  0.158734  3.495833
C    -1.157743  -1.320236  4.002568
S    -1.451680  -1.457769  5.794858
H    -0.093178  -1.541851  3.853958
H    -1.710433  -2.092233  3.454110
H    -2.784958  -1.682003  5.721960
N    -1.772608  2.082279  4.816374
C    -1.416163  3.195812  5.696371
H    -2.765982  1.929119  4.657353
H    -1.735480  2.969155  6.721780
H    -1.927075  4.101981  5.352483
H    -0.335462  3.347396  5.674758
Ca    2.158447  0.604372  3.687625
