24
Energy:  -42917.8239277  eV PBE+vdW (tier 2 basis)
C    -0.131115  -0.084597  -0.026126
C    -0.125530  -0.002683  1.461822
O    0.959107  0.220310  2.093751
H    0.197144  0.885419  -0.428319
H    -1.112673  -0.329111  -0.444742
H    0.603740  -0.829770  -0.358164
N    -1.277123  -0.153656  2.128211
C    -1.474068  0.084693  3.574167
C    -0.930913  -1.110811  4.392120
O    0.325907  -1.163007  4.614040
H    -2.111696  -0.334288  1.573196
H    -0.830595  0.932867  3.851076
C    -2.927810  0.493387  3.854502
S    -3.210621  0.939145  5.601671
H    -3.637893  -0.313433  3.612644
H    -3.197404  1.336622  3.206294
H    -2.798435  2.223785  5.495259
N    -1.749908  -2.052637  4.807759
C    -1.382350  -3.228118  5.599828
H    -2.742670  -1.924787  4.623650
H    -1.725320  -4.133815  5.086025
H    -1.866819  -3.166958  6.582259
H    -0.298739  -3.258175  5.725689
Ca    2.097520  -0.321482  3.792785
