24
Energy:  -42918.4056212  eV PBE+vdW (tier 2 basis)
C    -0.576946  0.886798  -0.507031
C    -1.144624  0.326719  0.754827
O    -0.394144  -0.234352  1.602962
H    0.204522  1.617205  -0.257361
H    -1.321364  1.360440  -1.154947
H    -0.084512  0.073536  -1.059207
N    -2.471955  0.429880  0.951411
C    -3.308026  -0.100006  2.048430
C    -3.076411  0.656940  3.372035
O    -1.966750  0.581910  3.974875
H    -2.986488  0.905246  0.214681
H    -4.330019  0.128156  1.714941
C    -3.309184  -1.649557  2.172861
S    -2.082910  -2.580344  3.184569
H    -3.201736  -2.070989  1.165488
H    -4.288430  -1.970377  2.546431
H    -2.756290  -2.561556  4.361210
N    -4.090654  1.367451  3.843633
C    -4.076789  2.143714  5.085777
H    -4.948844  1.396817  3.297918
H    -3.131241  1.976424  5.605439
H    -4.912891  1.827695  5.720455
H    -4.186382  3.210127  4.853091
Ca    -0.150928  -0.576878  3.698513
