24
Energy:  -42916.9696153  eV PBE+vdW (tier 2 basis)
C    -0.302734  0.238188  -0.112587
C    -0.227970  0.091031  1.375175
O    0.822108  0.211463  2.020474
H    -0.114573  1.292800  -0.361191
H    -1.268157  -0.055268  -0.539040
H    0.501577  -0.346564  -0.573848
N    -1.403486  -0.193017  2.040553
C    -1.505571  -0.073605  3.493987
C    -0.894782  -1.289751  4.233810
O    -1.573715  -1.943889  5.121352
H    -2.245914  -0.364059  1.499763
H    -0.874541  0.787728  3.780920
C    -2.970424  0.244876  3.821896
S    -3.449829  0.623789  5.560920
H    -3.641977  -0.578856  3.539223
H    -3.270321  1.127645  3.243872
H    -2.430366  1.454627  5.898970
N    0.342118  -1.574880  3.933423
C    1.139872  -2.673367  4.466728
H    0.766792  -0.909187  3.223440
H    1.916772  -2.275700  5.132863
H    1.632197  -3.186211  3.632614
H    0.507977  -3.381388  5.008682
Ca    -2.792063  -1.830046  6.757556
