24
Energy:  -42917.0523443  eV PBE+vdW (tier 2 basis)
C    -0.122559  -1.178728  0.358701
C    -0.244979  -0.701662  1.763579
O    0.096927  -1.481964  2.738762
H    0.911497  -1.492066  0.160855
H    -0.417162  -0.417871  -0.370410
H    -0.758431  -2.066539  0.228329
N    -0.703011  0.504634  2.008045
C    -1.022041  1.145831  3.278128
C    -1.905746  2.372625  2.794645
O    -1.895971  2.633706  1.592065
H    -1.016233  1.147515  1.240997
H    -1.629940  0.475510  3.904407
C    0.208228  1.669051  4.043320
S    1.089637  0.565399  5.243028
H    -0.050304  2.550042  4.643043
H    0.994303  1.981364  3.343681
H    0.197259  0.609407  6.263643
N    -2.573510  3.048253  3.736444
C    -3.419747  4.207341  3.428877
H    -2.606281  2.683280  4.682906
H    -3.354989  4.926261  4.251637
H    -4.464175  3.899578  3.292518
H    -3.060212  4.670555  2.506137
Ca    0.948455  -2.134953  4.458846
