24
Energy:  -42917.0956870  eV PBE+vdW (tier 2 basis)
C    0.862708  -0.685077  1.681377
C    0.221465  0.645076  1.863634
O    0.931657  1.699127  2.001030
H    1.430684  -0.728369  0.740879
H    0.159835  -1.521010  1.734044
H    1.603639  -0.796216  2.488114
N    -1.124019  0.772327  1.902224
C    -2.008719  0.166078  0.912506
C    -1.824806  0.962021  -0.419251
O    -0.954274  1.895305  -0.496603
H    -1.454604  1.661997  2.281780
H    -1.673693  -0.868289  0.735367
C    -3.458633  0.142454  1.412318
S    -3.463817  -0.726906  3.020576
H    -4.088174  -0.399277  0.694178
H    -3.853271  1.165269  1.508843
H    -4.806907  -0.686656  3.184680
N    -2.570324  0.635860  -1.453612
C    -2.505778  1.277705  -2.772979
H    -3.242140  -0.119444  -1.333904
H    -1.517911  1.123057  -3.222807
H    -2.705735  2.351425  -2.681903
H    -3.266407  0.823172  -3.412533
Ca    0.661319  3.049026  0.356119
