24
Energy:  -42917.6625744  eV PBE+vdW (tier 2 basis)
C    -0.096078  0.560273  -0.010354
C    -0.154774  0.435827  1.473041
O    0.795662  0.874967  2.199415
H    -0.958538  0.116753  -0.518146
H    0.825857  0.093122  -0.381944
H    -0.037405  1.627562  -0.269762
N    -1.225336  -0.136447  2.041510
C    -1.484910  -0.173533  3.494564
C    -0.556769  -1.202833  4.189701
O    0.553598  -0.749746  4.644717
H    -1.967228  -0.458279  1.422960
H    -1.136392  0.788262  3.898221
C    -2.987103  -0.255868  3.797409
S    -3.310178  -0.435256  5.582599
H    -3.465901  -1.117299  3.317150
H    -3.481547  0.642674  3.407703
H    -3.121329  0.864958  5.908955
N    -0.796431  -2.497242  4.272414
C    -1.949234  -3.288097  3.833102
H    -0.075365  -3.009985  4.782418
H    -2.299727  -2.964501  2.848936
H    -2.762876  -3.233707  4.568243
H    -1.625639  -4.329839  3.750224
Ca    1.962641  0.682234  3.962923
