24
Energy:  -42917.6169726  eV PBE+vdW (tier 2 basis)
C    0.093009  0.062562  0.010285
C    0.020156  0.055149  1.497818
O    1.053789  0.304910  2.199423
H    0.372957  1.074420  -0.318425
H    -0.848031  -0.220614  -0.472128
H    0.892389  -0.612030  -0.323711
N    -1.149682  -0.208911  2.094752
C    -1.401000  -0.071271  3.535895
C    -0.772458  -1.250470  4.316644
O    0.430076  -1.084648  4.729963
H    -1.951509  -0.380985  1.492015
H    -0.817775  0.799215  3.871518
C    -2.873770  0.285055  3.815551
S    -3.256830  2.018067  3.396488
H    -3.057964  0.199164  4.894463
H    -3.579177  -0.388697  3.315909
H    -3.525703  1.820756  2.084832
N    -1.391594  -2.384336  4.586940
C    -2.722707  -2.863646  4.195944
H    -0.837263  -3.026456  5.156434
H    -2.704379  -3.957170  4.228886
H    -2.965736  -2.559141  3.174011
H    -3.490924  -2.505843  4.891986
Ca    2.137286  -0.045394  3.985034
