24
Energy:  -42917.6166752  eV PBE+vdW (tier 2 basis)
C    0.052135  -1.495429  1.076082
C    -0.508713  -0.322282  1.800238
O    0.249755  0.444709  2.484780
H    0.565743  -2.154085  1.790031
H    0.813358  -1.141893  0.365794
H    -0.706588  -2.069670  0.535403
N    -1.820059  -0.071953  1.724934
C    -2.450703  1.154362  2.231462
C    -2.402179  1.212778  3.776513
O    -1.491561  1.943395  4.303433
H    -2.361568  -0.568607  1.010919
H    -1.821645  2.005457  1.921401
C    -3.836576  1.364868  1.597310
S    -3.648584  1.358457  -0.229378
H    -4.233932  2.327630  1.942466
H    -4.543814  0.580155  1.877954
H    -4.860244  0.819486  -0.494002
N    -3.232005  0.553044  4.563991
C    -4.293484  -0.411083  4.250616
H    -3.088595  0.745128  5.557107
H    -4.386024  -1.091075  5.103460
H    -4.036643  -1.004569  3.369072
H    -5.254714  0.097371  4.105787
Ca    0.607636  1.957810  3.913629
