24
Energy:  -42916.6796075  eV PBE+vdW (tier 2 basis)
C    1.206096  -0.931833  0.552284
C    0.447427  -0.433972  1.730455
O    0.230682  -1.203739  2.737945
H    1.345390  -0.168611  -0.220026
H    0.668901  -1.787092  0.116506
H    2.188274  -1.301991  0.876936
N    -0.024012  0.806626  1.754009
C    -0.923300  1.343109  2.787574
C    -1.830865  2.493104  2.247052
O    -3.013261  2.446110  2.543295
H    0.096235  1.367268  0.910466
H    -1.656729  0.561550  3.024232
C    -0.196645  1.798056  4.077248
S    -0.313560  0.704596  5.561983
H    -0.593148  2.759087  4.426649
H    0.881697  1.924472  3.918779
H    -1.633160  0.883880  5.829986
N    -1.237178  3.450067  1.491574
C    -2.006529  4.580731  0.956517
H    -0.226004  3.550088  1.502239
H    -1.482026  4.985831  0.086140
H    -2.131592  5.368240  1.711006
H    -2.995553  4.222585  0.656193
Ca    -0.259101  -1.926542  4.597091
