24
Energy:  -42916.9988523  eV PBE+vdW (tier 2 basis)
C    0.063231  -0.071253  0.112842
C    -0.007829  -0.028608  1.596570
O    1.051874  0.132333  2.293649
H    -0.799424  0.439827  -0.337406
H    0.064531  -1.113504  -0.246659
H    1.001740  0.390619  -0.210705
N    -1.183911  -0.146183  2.264548
C    -2.193811  -1.191002  2.045853
C    -1.531668  -2.561404  2.397200
O    -0.318700  -2.609915  2.798076
H    -1.106187  0.136211  3.241917
H    -2.964836  -0.999772  2.808864
C    -2.898207  -1.178741  0.679235
S    -3.482566  0.524459  0.357190
H    -3.766833  -1.849043  0.730234
H    -2.241256  -1.540529  -0.121843
H    -4.206608  0.201025  -0.740132
N    -2.260730  -3.653365  2.301706
C    -1.798021  -5.006082  2.637245
H    -3.224425  -3.554119  1.989607
H    -2.585287  -5.714333  2.367268
H    -1.597655  -5.083812  3.712755
H    -0.889050  -5.245290  2.074330
Ca    1.546576  -1.667578  3.341891
