24
Energy:  -42918.3253936  eV PBE+vdW (tier 2 basis)
C    -1.145489  -0.491922  -0.021033
C    -0.862149  -0.383562  1.441354
O    0.320587  -0.464765  1.873194
H    -2.209768  -0.437162  -0.271360
H    -0.732176  -1.437428  -0.397374
H    -0.611026  0.314607  -0.542997
N    -1.908085  -0.189859  2.272036
C    -1.911817  -0.009521  3.736450
C    -0.908507  1.061897  4.212301
O    0.278951  0.746772  4.526695
H    -2.821120  -0.147443  1.826686
H    -2.913923  0.386902  3.953240
C    -1.852453  -1.310323  4.565504
S    -0.416943  -2.454484  4.480077
H    -2.734768  -1.920364  4.336574
H    -1.917614  -1.047895  5.630425
H    -0.716250  -3.046922  3.297963
N    -1.320897  2.315290  4.326353
C    -2.644986  2.881463  4.037696
H    -0.612550  2.958058  4.683828
H    -3.390882  2.541498  4.767824
H    -2.967160  2.638368  3.018771
H    -2.567475  3.969491  4.114827
Ca    1.608498  -0.671695  3.587967
