24
Energy:  -42916.7771331  eV PBE+vdW (tier 2 basis)
C    0.197015  -0.172284  -0.003858
C    -0.189190  0.173472  1.395295
O    0.687342  0.635888  2.199969
H    -0.276849  0.540056  -0.696585
H    -0.133202  -1.175895  -0.301334
H    1.281508  -0.092288  -0.118760
N    -1.457156  0.029293  1.853927
C    -2.278531  -1.169650  1.659017
C    -1.501089  -2.376355  2.275811
O    -0.330230  -2.184318  2.772793
H    -1.604104  0.495136  2.749756
H    -3.146958  -1.023385  2.322504
C    -2.821970  -1.365114  0.217247
S    -4.630974  -1.080955  0.265548
H    -2.590308  -2.365649  -0.168531
H    -2.359627  -0.630516  -0.447177
H    -4.878104  -1.432175  -1.018409
N    -2.044890  -3.572766  2.352714
C    -3.372794  -4.043160  1.940649
H    -1.447663  -4.273412  2.795979
H    -3.816273  -4.594480  2.777774
H    -3.271844  -4.722270  1.084441
H    -4.030286  -3.210581  1.666174
Ca    1.264490  -0.955677  3.521000
