24
Energy:  -42917.2725692  eV PBE+vdW (tier 2 basis)
C    0.056875  0.416243  0.168820
C    -0.167786  0.286609  1.634905
O    0.646658  0.806520  2.466671
H    -0.034227  1.463315  -0.154708
H    -0.600520  -0.216592  -0.433691
H    1.101463  0.128459  -0.024015
N    -1.231926  -0.400557  2.118032
C    -2.593132  -0.154117  1.643728
C    -3.064314  1.189305  2.295625
O    -2.205939  1.944392  2.882711
H    -1.165687  -0.602966  3.117583
H    -2.542925  0.018337  0.556900
C    -3.496428  -1.373382  1.916898
S    -5.041163  -1.268431  0.925282
H    -3.746309  -1.447408  2.982827
H    -2.941854  -2.273186  1.624488
H    -5.847377  -1.863316  1.834938
N    -4.329942  1.512319  2.202847
C    -4.930878  2.738042  2.734168
H    -4.936300  0.805106  1.736626
H    -5.971484  2.778354  2.402204
H    -4.397729  3.617591  2.355757
H    -4.903222  2.737810  3.830962
Ca    -0.245835  2.416182  3.589537
