24
Energy:  -42918.4017560  eV PBE+vdW (tier 2 basis)
C    0.551046  0.506085  0.171540
C    -0.501922  0.116491  1.155110
O    -0.195827  -0.511958  2.208005
H    0.168721  1.068316  -0.686367
H    1.046160  -0.407159  -0.188877
H    1.319681  1.100938  0.683070
N    -1.777527  0.444825  0.879168
C    -3.016565  0.118290  1.615473
C    -3.118655  0.883947  2.949213
O    -2.326324  0.643838  3.905504
H    -1.918879  0.956626  0.012211
H    -3.807373  0.504235  0.957041
C    -3.335529  -1.399760  1.706210
S    -2.685028  -2.487076  3.044806
H    -2.987366  -1.874545  0.780327
H    -4.423622  -1.528287  1.737513
H    -3.707301  -2.335671  3.922386
N    -4.075681  1.792412  3.060579
C    -4.306166  2.592419  4.269229
H    -4.679184  1.965747  2.261312
H    -5.202197  3.198649  4.115056
H    -3.449119  3.250214  4.457904
H    -4.454616  1.936063  5.134135
Ca    -0.749725  -0.810635  4.250453
