24
Energy:  -42917.7751480  eV PBE+vdW (tier 2 basis)
C    -0.093707  0.130209  -0.132936
C    -0.083048  0.005234  1.353647
O    0.946279  -0.457937  1.945631
H    -1.023104  0.550010  -0.530656
H    0.066874  -0.866323  -0.569299
H    0.751834  0.754160  -0.452991
N    -1.169074  0.388419  2.034064
C    -1.491213  0.217511  3.466389
C    -0.600748  1.050219  4.401796
O    0.635837  0.776317  4.556040
H    -1.946370  0.712929  1.464037
H    -2.516659  0.598933  3.553399
C    -1.541828  -1.264796  3.915517
S    -2.833368  -2.229065  3.077027
H    -1.804705  -1.289584  4.982014
H    -0.569246  -1.763311  3.810469
H    -2.147320  -2.459181  1.933109
N    -1.188679  2.004501  5.101213
C    -0.549590  2.846998  6.114213
H    -2.176435  2.176215  4.924154
H    0.440047  2.449314  6.347507
H    -1.170257  2.850552  7.017378
H    -0.459027  3.873947  5.738433
Ca    2.200501  -0.314267  3.627848
