24
Energy:  -42917.0083267  eV PBE+vdW (tier 2 basis)
C    0.344013  0.431323  0.213265
C    0.040603  0.131146  1.637069
O    0.973720  0.036224  2.499516
H    0.998388  1.307495  0.120694
H    -0.545535  0.543129  -0.412309
H    0.924956  -0.423669  -0.172288
N    -1.238062  -0.061831  2.047468
C    -2.322920  0.895695  1.769469
C    -1.833321  2.289977  2.226996
O    -0.945823  2.348651  3.160466
H    -1.303266  -0.480638  2.977627
H    -2.558118  0.899663  0.698498
C    -3.563817  0.410332  2.571460
S    -5.074078  1.404236  2.453731
H    -3.312869  0.398848  3.643164
H    -3.766476  -0.625776  2.270754
H    -5.500738  0.898406  1.272085
N    -2.285883  3.405603  1.695880
C    -3.207635  3.633220  0.578119
H    -1.918146  4.252738  2.134485
H    -2.733639  4.335102  -0.118654
H    -4.141817  4.064102  0.954580
H    -3.437715  2.700555  0.060524
Ca    0.847170  1.564157  4.024714
