24
Energy:  -42917.7894441  eV PBE+vdW (tier 2 basis)
C    -2.074017  -0.034752  -0.364761
C    -1.480909  -0.425509  0.944867
O    -0.559852  -1.305280  1.002956
H    -1.280956  0.406647  -0.986820
H    -2.894571  0.684142  -0.273132
H    -2.428635  -0.929950  -0.892261
N    -1.915927  0.168203  2.063783
C    -1.295838  0.028797  3.398422
C    -1.707736  -1.316411  4.036577
O    -1.057771  -2.364682  3.709985
H    -2.653687  0.863078  1.964047
H    -0.209833  -0.049938  3.243916
C    -1.534824  1.287669  4.245460
S    -0.481142  1.344880  5.731996
H    -2.593879  1.450568  4.496736
H    -1.227805  2.159184  3.650513
H    -1.272286  0.603620  6.541468
N    -2.725124  -1.359151  4.871973
C    -3.237321  -2.555640  5.544676
H    -3.191613  -0.479463  5.083557
H    -4.223905  -2.815455  5.140848
H    -3.333145  -2.349419  6.616676
H    -2.542587  -3.383511  5.389989
Ca    0.205361  -2.948624  2.092527
