25
Energy: -608765.2151768  eV PBE+vdW (tier 2 basis)
C    0.591466  -1.491460  1.188505
C    0.242902  -0.076262  1.516148
O    0.865688  0.887094  1.003275
H    -0.157507  -2.209463  1.540441
H    0.769486  -1.606726  0.114629
H    1.534775  -1.721382  1.708145
N    -0.729579  0.180385  2.457531
C    -2.124108  -0.247424  2.286017
C    -2.400230  -0.576419  0.805170
O    -1.815071  0.049087  -0.120309
H    -0.696663  1.176495  2.709769
H    -2.370335  -1.112083  2.920656
C    -3.061107  0.948782  2.707560
C    -2.713246  2.101645  1.777826
O    -3.318080  2.268282  0.695184
O    -1.578569  2.699433  2.027742
H    -2.860441  1.195367  3.757265
H    -4.108123  0.649660  2.592101
N    -3.287129  -1.535100  0.554068
C    -3.752556  -1.894461  -0.783300
H    -3.702763  -2.013135  1.348026
H    -3.967508  -2.967096  -0.811175
H    -2.970141  -1.658519  -1.509583
H    -4.661078  -1.333974  -1.039570
Pb    -0.867087  2.313273  -0.142121
