25
Energy: -608765.1068987  eV PBE+vdW (tier 2 basis)
C    -0.332289  0.541078  -0.248926
C    -0.126532  0.227917  1.210819
O    0.910304  0.464384  1.818056
H    0.563014  0.243695  -0.805922
H    -0.437479  1.628808  -0.361380
H    -1.214192  0.056227  -0.683865
N    -1.200092  -0.374550  1.856443
C    -1.179850  -0.525231  3.296505
C    -1.465703  -1.984244  3.703897
O    -2.414784  -2.343014  4.479308
H    -2.084851  -0.462937  1.366545
H    -0.127490  -0.330691  3.573248
C    -2.050478  0.577283  3.964408
C    -2.407571  0.198908  5.369840
O    -3.643605  0.073713  5.694166
O    -1.483749  -0.212199  6.164554
H    -2.975858  0.744495  3.402920
H    -1.460635  1.503815  3.947732
N    -0.674931  -2.936716  3.211416
C    0.495143  -2.827660  2.341834
H    -0.952627  -3.875488  3.492115
H    1.167843  -3.658508  2.577390
H    1.027603  -1.886079  2.509903
H    0.206136  -2.891079  1.284809
Pb    -2.996324  -1.884924  6.709184
