25
Energy: -608765.1247144  eV PBE+vdW (tier 2 basis)
C    -0.175891  0.426377  0.070544
C    -0.676060  -0.132797  1.376914
O    -1.846230  -0.446133  1.586163
H    0.915566  0.400813  -0.028076
H    -0.509822  1.469699  -0.013890
H    -0.634000  -0.128592  -0.755327
N    0.256418  -0.300420  2.377425
C    -0.184309  -0.657357  3.714366
C    -1.191847  -1.835288  3.663266
O    -2.292061  -1.862846  4.303293
H    1.210404  0.018461  2.248224
H    0.687098  -1.058727  4.256221
C    -0.666845  0.618805  4.464001
C    -1.430595  0.259732  5.703747
O    -2.641151  0.663021  5.833912
O    -0.946958  -0.620724  6.506547
H    -1.311692  1.217079  3.813132
H    0.224548  1.207111  4.720785
N    -0.832782  -2.953612  3.026168
C    0.352980  -3.256545  2.233556
H    -1.563769  -3.661409  3.037996
H    0.255271  -2.892324  1.202481
H    0.472172  -4.344621  2.213224
H    1.251332  -2.824764  2.685364
Pb    -3.105777  -1.503937  6.445968
