25
Energy: -608765.0782871  eV PBE+vdW (tier 2 basis)
C    0.057415  -2.068020  2.873854
C    0.110152  -0.606153  3.267489
O    1.097947  -0.079636  3.749472
H    0.020237  -2.184649  1.780736
H    0.970518  -2.547022  3.236156
H    -0.810414  -2.585794  3.306451
N    -1.045026  0.151797  3.085478
C    -2.228619  -0.204773  2.342208
C    -1.980149  -0.071557  0.818299
O    -1.517041  0.981354  0.275486
H    -0.938345  1.134396  3.335057
H    -2.481924  -1.255041  2.547402
C    -3.458181  0.640846  2.810249
C    -3.272324  2.027053  2.256395
O    -2.294441  2.741261  2.696441
O    -3.899080  2.373475  1.197404
H    -3.464343  0.638224  3.906890
H    -4.389119  0.208756  2.429341
N    -2.206830  -1.148303  0.074892
C    -1.994662  -1.205912  -1.370391
H    -2.535263  -1.985893  0.545441
H    -2.117921  -2.240968  -1.699362
H    -2.722924  -0.572616  -1.892424
H    -0.983045  -0.863389  -1.615973
Pb    -1.868617  3.280566  0.480007
