25
Energy: -608765.1840413  eV PBE+vdW (tier 2 basis)
C    0.506030  0.388606  0.035457
C    0.262247  -0.096895  1.440814
O    1.126579  -0.588840  2.161303
H    -0.409144  0.464135  -0.563770
H    1.217288  -0.281767  -0.458013
H    0.971838  1.382889  0.083963
N    -1.026548  0.024144  1.923634
C    -1.239936  -0.200942  3.336394
C    -0.770561  -1.579936  3.838727
O    -0.286163  -1.656254  5.024321
H    -1.725780  0.534440  1.395010
H    -0.617902  0.494379  3.920999
C    -2.725664  0.062985  3.732565
C    -2.769558  -0.222099  5.213683
O    -3.145256  -1.376146  5.618191
O    -2.170376  0.591203  6.003347
H    -3.415514  -0.593913  3.190963
H    -2.960466  1.115471  3.530769
N    -0.921140  -2.706264  3.155144
C    -1.421196  -2.941443  1.803302
H    -0.535651  -3.515422  3.639005
H    -1.771141  -3.977363  1.753964
H    -0.626197  -2.798549  1.059751
H    -2.258932  -2.280955  1.571638
Pb    -1.288858  -1.283465  7.062842
