25
Energy: -608765.2831513  eV PBE+vdW (tier 2 basis)
C    -1.059358  -1.820668  -0.354222
C    -0.617589  -1.526866  1.042226
O    -0.022717  -2.435515  1.727178
H    -1.166430  -0.918529  -0.964837
H    -2.021575  -2.351682  -0.326631
H    -0.324984  -2.491796  -0.814087
N    -0.825705  -0.331550  1.595980
C    -1.956282  0.567988  1.391697
C    -1.524984  1.881564  2.092263
O    -0.671673  1.833970  2.976502
H    -0.367282  -0.116246  2.494365
H    -2.141612  0.720754  0.321973
C    -3.266082  -0.016518  2.080710
C    -2.882480  -1.299893  2.784095
O    -3.042779  -2.418071  2.182646
O    -2.235231  -1.243743  3.887920
H    -4.036593  -0.221448  1.331025
H    -3.651923  0.703819  2.811478
N    -2.163495  2.999662  1.698306
C    -1.922331  4.295811  2.326988
H    -2.846457  2.943268  0.951588
H    -0.850848  4.414595  2.519326
H    -2.459643  4.381462  3.280885
H    -2.260485  5.085951  1.650195
Pb    -1.267461  -3.335318  3.460430
