25
Energy: -608765.1630627  eV PBE+vdW (tier 2 basis)
C    -1.505886  -1.189409  -0.546326
C    -0.905857  -0.984284  0.805697
O    -0.075633  -1.836353  1.267354
H    -2.351174  -1.889087  -0.464140
H    -0.753013  -1.661793  -1.187526
H    -1.857431  -0.261993  -1.009028
N    -1.224103  0.100910  1.541614
C    -2.594000  0.652776  1.625957
C    -2.664811  2.194889  1.708183
O    -3.655045  2.711409  2.207708
H    -0.704869  0.152105  2.421533
H    -3.116608  0.358961  0.707365
C    -3.344039  0.012827  2.850676
C    -2.672885  -1.303709  3.137561
O    -2.901858  -2.328483  2.403824
O    -1.718659  -1.335628  4.001094
H    -4.402067  -0.120657  2.604391
H    -3.265743  0.674649  3.719150
N    -1.614195  2.859455  1.167700
C    -1.561546  4.313918  1.096471
H    -0.850745  2.323120  0.771552
H    -2.451913  4.706848  1.596600
H    -1.557520  4.653225  0.052669
H    -0.665098  4.693212  1.602370
Pb    -0.804304  -3.226906  3.000550
