25
Energy: -608765.2835066  eV PBE+vdW (tier 2 basis)
C    0.185686  -0.943568  0.215145
C    -0.208534  -0.326891  1.517619
O    0.692815  -0.033958  2.383490
H    1.164809  -0.545578  -0.073673
H    -0.539802  -0.751684  -0.581906
H    0.294357  -2.029669  0.346290
N    -1.486687  -0.070862  1.800680
C    -2.662335  -0.837312  1.399959
C    -3.857402  0.070983  1.782783
O    -3.709105  0.911197  2.668272
H    -1.703715  0.493073  2.635770
H    -2.636968  -1.047631  0.324361
C    -2.736940  -2.206247  2.208445
C    -1.566104  -2.240523  3.165507
O    -0.481742  -2.821390  2.812797
O    -1.606065  -1.535029  4.233900
H    -2.682826  -3.059351  1.525201
H    -3.675450  -2.250608  2.772734
N    -5.016129  -0.169287  1.140988
C    -6.239815  0.564108  1.457017
H    -5.034769  -0.841590  0.383186
H    -6.471775  0.474091  2.524778
H    -7.061270  0.142439  0.871198
H    -6.130189  1.628596  1.214596
Pb    0.731955  -1.388309  4.261860
