25
Energy: -608765.0295328  eV PBE+vdW (tier 2 basis)
C    -0.235449  -0.036205  -0.101493
C    -0.070852  0.007654  1.378037
O    1.091083  -0.106688  1.903256
H    -0.507336  0.961544  -0.478301
H    0.709790  -0.344024  -0.555438
H    -1.038966  -0.721386  -0.396464
N    -1.126826  0.146564  2.207799
C    -2.324082  1.004440  2.021634
C    -3.089174  0.715156  0.696753
O    -3.073259  1.518566  -0.228116
H    -0.844139  0.097630  3.187167
H    -2.980176  0.741449  2.859951
C    -1.948947  2.524028  2.121621
C    -0.490353  2.633547  2.481895
O    0.371726  2.839875  1.558122
O    -0.096612  2.339170  3.670766
H    -2.565065  3.004371  2.889950
H    -2.132078  2.990857  1.146927
N    -3.749939  -0.469021  0.638899
C    -3.957311  -1.445908  1.702951
H    -4.275594  -0.590462  -0.222993
H    -4.446068  -2.323639  1.269622
H    -4.607896  -1.060261  2.501891
H    -3.006344  -1.779228  2.136487
Pb    2.033853  1.806367  2.844053
