25
Energy: -608765.1223152  eV PBE+vdW (tier 2 basis)
C    -0.191200  0.390370  0.233173
C    -0.225706  0.518047  1.716678
O    0.550336  1.342857  2.313646
H    0.657147  0.960267  -0.153649
H    -1.120778  0.788181  -0.201479
H    -0.115166  -0.659075  -0.075516
N    -1.050616  -0.235561  2.474862
C    -2.451149  -0.627534  2.175467
C    -2.601202  -1.392368  0.823895
O    -3.166221  -0.882962  -0.135447
H    -0.907766  -0.063062  3.470588
H    -2.721156  -1.317032  2.984809
C    -3.408107  0.613214  2.219955
C    -2.613132  1.815186  2.658331
O    -2.229535  1.921850  3.881578
O    -2.165917  2.629252  1.777073
H    -4.224952  0.422704  2.925026
H    -3.812465  0.773083  1.213441
N    -2.048512  -2.628417  0.831211
C    -2.096402  -3.523945  -0.318523
H    -1.643538  -2.977519  1.693220
H    -1.092886  -3.900033  -0.551889
H    -2.483571  -2.960293  -1.172246
H    -2.761676  -4.375111  -0.123706
Pb    -0.423831  3.260903  3.210507
