25
Energy: -608765.1781022  eV PBE+vdW (tier 2 basis)
C    0.746490  -0.629883  0.574909
C    0.376354  0.159888  1.794298
O    1.289350  0.544707  2.590136
H    -0.116888  -0.941881  -0.022049
H    1.303800  -1.521000  0.892695
H    1.420218  -0.032578  -0.053078
N    -0.922511  0.403149  2.005739
C    -1.530049  0.969358  3.223107
C    -2.878795  0.261068  3.519194
O    -2.988627  -0.352598  4.569562
H    -1.562889  -0.008380  1.332595
H    -0.894893  0.674092  4.066898
C    -1.630205  2.523046  3.234871
C    -0.216647  3.025462  3.290238
O    0.389484  3.340118  2.204609
O    0.428342  2.929434  4.395263
H    -2.168614  2.810428  4.146950
H    -2.142759  2.920653  2.354507
N    -3.870181  0.286618  2.575812
C    -4.089888  1.204148  1.460925
H    -4.690827  -0.225387  2.894249
H    -4.780934  0.733017  0.753707
H    -4.527707  2.160110  1.785648
H    -3.164622  1.419922  0.913925
Pb    2.344997  2.515491  3.180291
