25
Energy: -608764.9869083  eV PBE+vdW (tier 2 basis)
C    -0.464807  -0.202480  -0.123023
C    -0.200553  -0.127275  1.366983
O    0.913867  -0.209809  1.853487
H    0.470658  -0.472821  -0.619194
H    -0.792296  0.770701  -0.519086
H    -1.228795  -0.952719  -0.371153
N    -1.303592  0.018889  2.205321
C    -2.643961  0.388098  1.824606
C    -2.720703  1.882201  1.426254
O    -2.137377  2.789453  2.105980
H    -1.060244  0.122822  3.189707
H    -2.956227  -0.215923  0.963668
C    -3.655608  0.073233  2.978105
C    -3.414586  1.109556  4.043680
O    -2.307923  1.069459  4.701067
O    -4.157809  2.148202  4.091636
H    -3.446893  -0.941554  3.336884
H    -4.686450  0.139379  2.615166
N    -3.370323  2.229824  0.320391
C    -4.079981  1.361608  -0.622283
H    -3.359837  3.228854  0.120455
H    -4.515948  1.995821  -1.398833
H    -4.894856  0.817952  -0.129798
H    -3.395232  0.652417  -1.103992
Pb    -2.171108  3.365133  4.364196
