25
Energy: -608765.3591537  eV PBE+vdW (tier 2 basis)
C    -2.010758  0.351155  -0.114828
C    -1.184638  -0.316894  0.953589
O    -0.465665  -1.294537  0.748744
H    -2.707652  1.102300  0.274586
H    -2.563557  -0.415011  -0.670077
H    -1.331825  0.840877  -0.825587
N    -1.237280  0.237816  2.210780
C    -0.442994  -0.367791  3.258857
C    -0.893597  -1.826905  3.491516
O    -2.120994  -2.132168  3.693303
H    -1.944860  0.920112  2.464647
H    0.600467  -0.393844  2.922053
C    -0.481115  0.485489  4.561794
C    -1.834925  0.281744  5.186432
O    -2.871791  0.729782  4.570524
O    -1.960718  -0.546021  6.153116
H    -0.310555  1.534123  4.288264
H    0.303184  0.155600  5.250305
N    0.008136  -2.796567  3.490231
C    1.406642  -2.715025  3.063329
H    -0.379465  -3.725379  3.645748
H    1.458090  -2.323188  2.039231
H    1.821897  -3.726127  3.082404
H    1.997312  -2.092270  3.745512
Pb    -3.832340  -1.355269  5.023528
