25
Energy: -608764.9110747  eV PBE+vdW (tier 2 basis)
C    0.367151  0.733893  2.395773
C    0.075955  -0.697382  2.003053
O    0.644568  -1.661409  2.486701
H    0.642537  1.347067  1.526200
H    -0.498553  1.208790  2.880851
H    1.199678  0.726582  3.103498
N    -0.899116  -0.906447  1.026655
C    -1.816447  0.062119  0.493593
C    -2.970234  0.500215  1.432727
O    -3.440287  1.687052  1.322001
H    -1.024097  -1.887828  0.793179
H    -1.281295  1.004254  0.306042
C    -2.365814  -0.415882  -0.889872
C    -3.325744  0.653819  -1.333438
O    -4.576753  0.510434  -1.095658
O    -2.852498  1.792394  -1.688579
H    -1.514872  -0.502852  -1.574975
H    -2.881243  -1.379401  -0.799753
N    -3.464459  -0.281469  2.384129
C    -3.187382  -1.682535  2.724381
H    -4.180513  0.181602  2.941962
H    -3.222342  -2.318644  1.834563
H    -2.219324  -1.797447  3.224427
H    -3.978186  -2.011321  3.404910
Pb    -4.547185  2.752213  -0.432141
