24
Energy: -102286.230964 eV PBE+vdW (tier 2 basis)
N    -0.992954  -0.681507  0.352172
C    -0.106363  -0.626570  1.482692
C    1.391357  -0.455099  1.159036
O    1.769637  -0.308490  -0.051880
H    -0.696728  -1.331857  -0.373307
H    -1.174650  0.224545  -0.072046
H    -0.368900  0.271517  2.067158
C    -0.362095  -1.882504  2.360679
C    0.103432  -1.802566  3.865513
C    -0.611770  -0.814088  4.682828
C    0.269750  -3.127121  4.475293
C    -1.072533  -1.114775  5.940553
C    -0.203606  -3.413253  5.733213
C    -0.879883  -2.412772  6.458089
H    0.118902  -2.760128  1.905997
H    -1.443311  -2.060900  2.338361
H    -0.768401  0.185496  4.275053
H    0.790061  -3.893644  3.898176
H    -1.598518  -0.368738  6.534661
H    -0.070356  -4.402676  6.168490
H    -1.267795  -2.648792  7.450774
O    2.262263  -0.430723  2.116156
H    1.148844  -1.392276  3.762962
Sr    3.966619  0.095923  0.561378
