24
Energy: -102286.513386 eV PBE+vdW (tier 2 basis)
N    0.411332  1.079643  0.088575
C    0.260453  0.451921  1.371371
C    1.652561  -0.058792  1.759113
O    2.323043  0.620428  2.610000
H    -0.209789  1.865601  -0.079021
H    0.452456  0.457597  -0.713730
H    0.033413  1.237409  2.102179
C    -0.894513  -0.630795  1.573679
C    -1.041328  -1.666481  0.523633
C    -1.720563  -1.401121  -0.658580
C    -0.446829  -3.008028  0.701676
C    -1.856689  -2.388987  -1.644288
C    -0.648795  -4.007218  -0.356532
C    -1.329363  -3.693645  -1.501173
H    -1.820041  -0.039608  1.614844
H    -0.749426  -1.084706  2.563959
H    -2.187350  -0.428817  -0.815262
H    -0.728393  -3.437668  1.684547
H    -2.407396  -2.144635  -2.554862
H    -0.240836  -5.007130  -0.202324
H    -1.481628  -4.430567  -2.288067
O    2.179684  -1.083673  1.181932
H    0.650511  -2.859901  0.847376
Sr    4.293485  -0.433829  2.063954
