24
Energy: -102286.265062 eV PBE+vdW (tier 2 basis)
N    -1.231473  -1.051567  0.297480
C    -0.449435  -0.609475  1.420456
C    0.867272  -0.000588  0.945895
O    0.994784  0.342947  -0.280218
H    -0.985891  -0.600160  -0.580149
H    -2.235941  -1.032297  0.450147
H    -0.929850  0.204944  2.005754
C    -0.258626  -1.849327  2.338036
C    0.322702  -1.592359  3.805549
C    -0.543062  -0.735738  4.627033
C    0.670408  -2.891088  4.395398
C    -1.060497  -1.169088  5.821712
C    0.148138  -3.306956  5.596249
C    -0.725841  -2.454768  6.298714
H    0.392248  -2.571502  1.828927
H    -1.239048  -2.327627  2.448211
H    -0.771346  0.269473  4.270917
H    1.339369  -3.544841  3.833064
H    -1.715906  -0.529472  6.411251
H    0.400476  -4.283468  6.007156
H    -1.146892  -2.792763  7.247297
O    1.832159  0.195928  1.775952
H    1.258655  -1.027696  3.584563
Sr    3.124597  1.197487  0.062602
