24
Energy: -102287.028218 eV PBE+vdW (tier 2 basis)
N    -0.047444  -0.079408  0.201704
C    -0.081758  0.011489  1.692825
C    1.336753  0.034302  2.223776
O    2.276469  -0.447940  1.553677
H    -0.165301  0.863569  -0.184886
H    -0.919606  -0.576961  -0.060294
H    -0.625141  0.914786  2.009514
C    -0.818317  -1.240783  2.291149
C    -2.143027  -1.459275  1.606748
C    -2.271323  -2.455225  0.623336
C    -3.251736  -0.655250  1.913034
C    -3.485886  -2.645784  -0.040986
C    -4.462394  -0.847155  1.249977
C    -4.579575  -1.837577  0.269796
H    -0.941996  -1.081520  3.371340
H    -0.176649  -2.128763  2.174390
H    -1.438172  -3.136428  0.426285
H    -3.180949  0.106959  2.691483
H    -3.584582  -3.439389  -0.780528
H    -5.323142  -0.231483  1.507624
H    -5.530880  -1.989910  -0.238094
O    1.608511  0.480368  3.421152
H    0.836734  0.859962  3.888023
Sr    2.156858  -1.167943  -0.622184
