24
Energy: -102288.12577 eV PBE+vdW (tier 2 basis)
N    -0.065432  0.868322  0.421109
C    -0.232122  -0.060303  1.610948
C    1.128994  -0.726144  1.825717
O    1.324882  -1.353424  2.898663
H    0.224721  1.812136  0.714094
H    -0.917784  0.964970  -0.145893
H    -0.533874  0.545667  2.470878
C    -1.291134  -1.192493  1.350893
C    -0.730596  -2.563742  1.010897
C    -0.224194  -2.869240  -0.266709
C    -0.687489  -3.565551  2.001035
C    0.326265  -4.128895  -0.545480
C    -0.146323  -4.830327  1.727547
C    0.369497  -5.114862  0.452552
H    -1.983996  -0.865054  0.560422
H    -1.894338  -1.271358  2.262348
H    -0.270252  -2.129674  -1.067025
H    -1.087248  -3.358146  2.993993
H    0.683514  -4.352452  -1.550844
H    -0.161151  -5.602038  2.497871
H    0.755706  -6.108871  0.224960
O    1.889780  -0.804153  0.800786
H    0.713461  0.461796  -0.143506
Sr    2.365170  -3.087979  1.596132
