24
Energy: -102286.312648 eV PBE+vdW (tier 2 basis)
N    -0.932897  -0.519963  -0.033253
C    -0.524126  -0.633041  1.336020
C    0.961793  -0.333797  1.441121
O    1.663912  0.172213  0.544452
H    -1.874108  -0.149791  -0.135059
H    -0.860084  -1.391599  -0.555181
H    -0.971604  0.208794  1.901914
C    -0.925096  -1.943843  2.104849
C    -0.586825  -1.941714  3.578660
C    -1.280610  -1.105663  4.475656
C    0.436019  -2.773144  4.088509
C    -0.961624  -1.099706  5.830340
C    0.752430  -2.763792  5.455003
C    0.058182  -1.924409  6.322653
H    -0.469825  -2.807999  1.599596
H    -2.010558  -2.033176  1.965641
H    -2.099823  -0.481376  4.114402
H    0.933133  -3.483293  3.423397
H    -1.522892  -0.463694  6.513953
H    1.517148  -3.438936  5.837393
H    0.289491  -1.926770  7.386992
O    1.638701  -0.587570  2.593038
H    1.087127  -1.171310  3.259933
Sr    3.739137  0.428577  1.562970
