14
Energy: -27354.6424281 eV PBE+vdW (tier 2 basis)
N    0.366597  0.811718  0.759777
C    0.542709  0.136524  2.096518
C    1.920015  -0.517693  2.115023
O    2.534595  -0.724896  1.041738
H    -0.628002  0.750186  0.510810
H    0.523619  1.819862  0.884689
H    0.494495  0.889203  2.899608
H    -0.543636  -1.690947  1.543625
C    -0.543778  -0.925844  2.332377
H    -0.401100  -1.437125  3.292566
H    -1.529266  -0.443776  2.368743
H    1.968364  -0.720035  4.031004
O    2.477851  -0.916580  3.216896
Ca    1.955537  -0.072598  -0.898375
