23
Energy: -99209.7928024 eV PBE+vdW (tier 2 basis)
N    -0.774519  0.537480  -0.071792
C    -0.079927  0.117563  1.217483
C    1.380465  -0.189571  0.888119
O    2.137688  -0.615630  1.815119
H    -1.199686  -0.290831  -0.523252
H    -0.076990  0.925661  -0.727604
H    -0.067261  1.010668  1.861947
C    -0.844493  -1.009912  1.949106
C    -0.777565  -2.389811  1.254596
C    -2.275996  -0.561076  2.281409
C    -1.351678  -2.508461  -0.164783
H    -0.300756  -1.109689  2.901052
H    -1.319384  -3.086188  1.909456
H    0.263564  -2.748229  1.258225
H    -2.291448  0.397906  2.817618
H    -2.751483  -1.302992  2.933735
H    -2.924732  -0.471063  1.397369
H    -0.701172  -2.063191  -0.939119
H    -2.367713  -2.094216  -0.254387
H    -1.439407  -3.562959  -0.453925
O    1.821145  0.028792  -0.297622
H    -1.516419  1.226492  0.102296
Sr    4.026767  -0.608740  0.419957
