23
Energy: -99209.7477899 eV PBE+vdW (tier 2 basis)
N    0.490285  -1.055796  0.047629
C    0.045190  -0.372560  1.331174
C    1.308612  0.083738  2.057718
O    2.389674  -0.590369  1.895490
H    0.756987  -0.387668  -0.687767
H    1.313920  -1.644374  0.254434
H    -0.545937  0.510722  1.055151
C    -0.823400  -1.371959  2.156536
C    -2.250390  -1.507814  1.575530
C    -0.898859  -0.985245  3.638599
C    -2.397486  -1.929821  0.109568
H    -0.314670  -2.352179  2.089193
H    -2.789033  -0.561907  1.741691
H    -2.758783  -2.253589  2.202414
H    0.074939  -1.053889  4.142181
H    -1.571892  -1.678143  4.156505
H    -1.292444  0.029772  3.778893
H    -3.444628  -2.172113  -0.110009
H    -1.833251  -2.849618  -0.127864
H    -2.144443  -1.131696  -0.609233
O    1.257677  1.095098  2.824776
H    -0.283535  -1.640988  -0.317108
Sr    3.489437  0.812128  3.503570
