23
Energy: -99209.7517486 eV PBE+vdW (tier 2 basis)
N    -0.001786  0.488269  0.687413
C    0.201230  -0.463049  1.854921
C    1.583701  -1.085309  1.678538
O    2.166279  -1.625442  2.669100
H    -1.003334  0.507580  0.431676
H    0.559453  0.141192  -0.111242
H    0.181530  0.127780  2.779640
C    -0.948621  -1.519705  1.878592
C    -2.337872  -0.840076  1.757409
C    -0.853841  -2.398469  3.132746
C    -2.688615  0.207007  2.815995
H    -0.819130  -2.161573  0.989444
H    -3.073198  -1.657007  1.789173
H    -2.489621  -0.423537  0.740756
H    0.072736  -2.980962  3.171995
H    -1.689340  -3.108345  3.137447
H    -0.912253  -1.806574  4.054870
H    -2.643579  -0.204002  3.831530
H    -3.711575  0.568964  2.660024
H    -2.037566  1.095491  2.790351
O    2.119654  -1.071363  0.508849
H    0.297537  1.448659  0.897136
Sr    4.005211  -2.290530  1.364640
