23
Energy: -99209.0761984 eV PBE+vdW (tier 2 basis)
N    0.367409  -0.083447  -0.160136
C    0.289504  -0.252184  1.333589
C    1.711133  -0.409324  1.866953
O    2.701596  -0.314897  1.105715
H    -0.351754  0.597179  -0.427588
H    0.021400  -0.958703  -0.574772
H    -0.068511  0.705802  1.751924
C    -0.731260  -1.358537  1.762601
C    -2.126410  -1.072702  1.150720
C    -0.826528  -1.533670  3.290947
C    -2.783361  0.244365  1.565083
H    -0.368553  -2.311100  1.336869
H    -2.768412  -1.913496  1.449919
H    -2.086766  -1.143078  0.051297
H    -0.011450  -2.142742  3.711540
H    -1.737150  -2.093130  3.539568
H    -0.912870  -0.577305  3.831940
H    -2.921457  0.320076  2.650920
H    -3.777649  0.327106  1.110515
H    -2.221602  1.135938  1.240568
O    1.941063  -0.586722  3.134091
H    1.110339  -0.723455  3.647462
Sr    2.787942  0.343146  -1.066012
