23
Energy: -99209.8133912 eV PBE+vdW (tier 2 basis)
N    -0.893434  0.788268  3.822096
C    0.020977  -0.425898  3.835217
C    1.376387  0.012252  3.277878
O    1.588692  1.261005  3.057619
H    -1.443939  0.877289  4.684540
H    -1.552368  0.715007  3.030152
H    0.206479  -0.668903  4.893072
C    -0.651592  -1.648914  3.165599
C    -1.201710  -1.366726  1.753283
C    -1.740173  -2.217841  4.087012
C    -0.204064  -0.875125  0.703117
H    0.158419  -2.390014  3.080923
H    -2.072247  -0.682028  1.801782
H    -1.649790  -2.308876  1.407536
H    -2.583392  -1.522322  4.222423
H    -1.345724  -2.478167  5.078048
H    -2.161159  -3.131856  3.652050
H    -0.679365  -0.833103  -0.284100
H    0.654891  -1.555591  0.624643
H    0.169129  0.141919  0.905779
O    2.281215  -0.860480  3.106898
H    -0.308535  1.633690  3.686017
Sr    3.843299  0.746415  2.405414
