23
Energy: -99209.7969773 eV PBE+vdW (tier 2 basis)
N    0.442107  -0.196498  0.086578
C    -0.046511  0.161551  1.484134
C    1.151764  0.677876  2.275337
O    2.329453  0.583570  1.772909
H    1.456561  -0.396404  0.134971
H    -0.064862  -1.021915  -0.267187
H    -0.770813  0.980282  1.377047
C    -0.745709  -1.049574  2.157592
C    0.229949  -2.211396  2.434180
C    -1.981032  -1.462872  1.346424
C    -0.384198  -3.352705  3.248725
H    -1.089852  -0.647567  3.124079
H    1.109510  -1.823771  2.977028
H    0.617858  -2.622814  1.484442
H    -2.632632  -0.609526  1.116659
H    -2.580703  -2.182698  1.913900
H    -1.727040  -1.973706  0.401155
H    -1.175734  -3.873583  2.697186
H    -0.812528  -2.985263  4.190983
H    0.379212  -4.099387  3.496213
O    0.950710  1.179008  3.425024
H    0.306916  0.568605  -0.586093
Sr    3.236575  1.598782  3.758716
