23
Energy: -99209.1339685 eV PBE+vdW (tier 2 basis)
N    0.280122  0.246511  0.899909
C    -0.317793  -0.245564  2.186576
C    0.802825  -0.418393  3.208942
O    1.941413  0.060053  3.008758
H    -0.415020  0.850395  0.449047
H    0.327521  -0.570288  0.273894
H    -0.917520  0.584278  2.602637
C    -1.284897  -1.455415  2.006947
C    -0.661044  -2.638809  1.242222
C    -2.597203  -0.990180  1.360439
C    0.625749  -3.230372  1.816486
H    -1.542053  -1.810091  3.023886
H    -0.519414  -2.365102  0.179777
H    -1.430467  -3.422842  1.201869
H    -2.448008  -0.642706  0.327467
H    -3.077724  -0.184781  1.931736
H    -3.307117  -1.823976  1.309011
H    0.939135  -4.104880  1.233816
H    0.498673  -3.567612  2.854080
H    1.477998  -2.529674  1.798290
O    0.579231  -0.986459  4.359605
H    -0.323094  -1.363846  4.426686
Sr    2.687102  1.228574  1.199445
