23
Energy: -99209.1162026 eV PBE+vdW (tier 2 basis)
N    0.163523  0.627090  0.410929
C    -0.167271  0.340627  1.845226
C    1.105114  0.524284  2.653299
O    2.218615  0.282059  2.136209
H    0.047828  1.633117  0.240861
H    -0.578126  0.190938  -0.151398
H    -0.946367  1.030388  2.207370
C    -0.697597  -1.124460  1.996677
C    -1.979862  -1.341262  1.154273
C    -0.901020  -1.516474  3.466380
C    -3.181928  -0.466279  1.510302
H    0.090082  -1.785141  1.579661
H    -2.244890  -2.401707  1.278902
H    -1.761123  -1.253625  0.073850
H    0.039159  -1.578756  4.029054
H    -1.364669  -2.508631  3.519591
H    -1.578158  -0.825865  3.989092
H    -3.489420  -0.589505  2.555800
H    -4.041961  -0.746119  0.890580
H    -3.005662  0.605230  1.331711
O    1.084201  0.899019  3.902357
H    0.183009  1.066605  4.245993
Sr    2.618049  -0.123593  -0.083498
