23
Energy: -99208.9698658 eV PBE+vdW (tier 2 basis)
N    0.489176  0.342356  0.210382
C    0.335867  -0.076930  1.646850
C    1.738804  -0.274438  2.224125
O    2.752678  0.119727  1.605531
H    0.290104  -0.490182  -0.363745
H    -0.296694  0.962040  -0.010451
H    -0.078852  0.795066  2.183474
C    -0.618184  -1.294416  1.921491
C    -1.751007  -1.441701  0.873877
C    -1.240493  -1.172957  3.326061
C    -1.411914  -2.260143  -0.375847
H    -0.010035  -2.214161  1.872228
H    -2.165876  -0.454098  0.611945
H    -2.578210  -1.956210  1.382203
H    -1.775372  -2.095294  3.579503
H    -1.958773  -0.341463  3.362685
H    -0.541347  -0.993993  4.163621
H    -0.646938  -1.817235  -1.039095
H    -2.302922  -2.386443  -1.002705
H    -1.053025  -3.262582  -0.107636
O    1.919124  -0.843540  3.379235
H    1.069415  -1.129860  3.787762
Sr    2.875339  1.220749  -0.384055
