16
Energy: -32482.654792 eV PBE+vdW (tier 2 basis)
N    -0.368469  0.346653  -0.035782
C    -0.291627  0.050354  1.395452
C    1.137515  0.219951  1.924907
O    1.613104  1.270526  2.286608
H    -0.126983  1.321537  -0.214490
H    0.277034  -0.233244  -0.574674
H    -0.890870  0.804925  1.921235
C    -0.888247  -1.340024  1.634049
C    -0.979162  -1.760111  3.064169
O    -1.221989  -2.993345  3.369432
O    -0.828134  -0.906772  4.024718
H    -0.341663  -2.124723  1.091455
H    -1.911303  -1.356671  1.221047
O    1.857530  -0.945509  1.864410
H    2.778437  -0.709038  2.093229
Ca    -1.082463  -2.487379  5.435655
