16
Energy: -32483.6379662 eV PBE+vdW (tier 2 basis)
N    -0.784850  0.524972  -0.463320
C    -0.344010  0.536128  0.963552
C    0.925426  -0.294170  1.079424
O    1.298482  -1.113581  0.227041
H    -0.264014  1.236514  -0.983583
H    -1.762814  0.827381  -0.493097
H    -0.078365  1.554494  1.289405
C    -1.456499  0.036804  1.917808
C    -2.135032  -1.325884  1.629177
O    -1.623047  -2.022676  0.622994
O    -3.071241  -1.665904  2.316045
H    -2.248761  0.798895  1.949600
H    -1.057710  -0.005846  2.940422
O    1.600101  -0.056284  2.187851
H    2.385565  -0.641028  2.230486
Ca    -0.465232  -1.871814  -1.025805
