16
Energy: -32483.6108784 eV PBE+vdW (tier 2 basis)
N    -0.397830  -0.064230  -0.105630
C    -0.386671  -0.128673  1.328856
C    0.988327  -0.045055  2.030592
O    1.153149  0.102916  3.257880
H    0.124256  -0.816920  -0.551001
H    -0.067082  0.826280  -0.470670
H    -0.934377  0.743330  1.723561
C    -1.182227  -1.390839  1.801071
C    -1.190871  -1.433457  3.306206
O    -1.753106  -0.474233  3.950768
O    -0.438402  -2.264518  3.926135
H    -0.733293  -2.306205  1.398201
H    -2.195703  -1.274019  1.400774
O    2.020718  -0.106104  1.209428
H    2.851224  -0.030873  1.724367
Ca    0.054888  -0.526401  5.164464
