16
Energy: -32483.7701225 eV PBE+vdW (tier 2 basis)
N    0.351941  -0.167355  0.518128
C    0.102266  -0.061108  1.964103
C    1.248518  -0.659636  2.788638
O    2.122919  -1.377044  2.193996
H    -0.056723  0.612743  0.004138
H    -0.259025  -1.693484  0.297007
H    -0.122067  0.959249  2.301164
C    -1.120196  -0.992396  2.320156
C    -0.640788  -2.388285  1.992771
O    -0.300412  -3.208615  2.883490
O    -0.416295  -2.636457  0.733469
H    -1.977465  -0.709464  1.697132
H    -1.376813  -0.898904  3.377805
O    1.126719  -0.684382  4.057299
H    1.353556  -0.208837  0.320046
Ca    1.665866  -2.840025  3.849657
