16
Energy: -32483.6131645 eV PBE+vdW (tier 2 basis)
N    -0.127574  0.507169  0.326770
C    0.072643  -0.171971  1.578252
C    1.558646  -0.344692  1.887344
O    2.009246  -0.604904  3.020072
H    0.107890  -0.058595  -0.487462
H    -1.084956  0.839006  0.229388
H    -0.305551  0.471044  2.387750
C    -0.682036  -1.558628  1.743626
C    -0.353033  -2.122503  3.097676
O    0.491856  -3.080569  3.203683
O    -0.706781  -1.461062  4.143714
H    -0.387629  -2.254490  0.950068
H    -1.751930  -1.333476  1.663187
O    2.355203  -0.213054  0.846768
H    3.284208  -0.345542  1.128853
Ca    1.330887  -1.850508  4.811102
