16
Energy: -32483.0223176 eV PBE+vdW (tier 2 basis)
N    -0.415100  0.380041  0.256946
C    -0.094969  -0.197469  1.533162
C    1.395482  -0.038556  1.910070
O    2.301878  0.245384  1.190084
H    0.159581  0.006592  -0.498532
H    -0.319392  1.394293  0.254279
H    -0.670441  0.322770  2.313573
C    -0.543534  -1.692835  1.552584
C    -0.272336  -2.248684  2.918926
O    0.724713  -3.029781  3.118149
O    -0.890565  -1.738471  3.928083
H    -0.009947  -2.271310  0.789827
H    -1.617412  -1.691152  1.332300
O    1.691389  -0.176031  3.336242
H    2.622496  0.131109  3.366596
Ca    1.002260  -1.876616  4.940184
