16
Energy: -32483.6435359 eV PBE+vdW (tier 2 basis)
N    1.016023  -1.069962  0.101289
C    0.280900  -0.353529  1.133051
C    1.376894  0.040163  2.136117
O    1.977625  -0.740346  2.899953
H    0.678831  -0.851867  -0.832487
H    0.997374  -2.077957  0.255586
H    -0.096401  0.584395  0.709340
C    -0.930212  -1.099399  1.781588
C    -0.409989  -2.215649  2.647471
O    -0.447133  -2.104071  3.921327
O    0.301506  -3.146131  2.108998
H    -1.542363  -1.489438  0.958170
H    -1.534832  -0.415107  2.387636
O    1.700099  1.317690  2.071384
H    2.461072  1.497664  2.662873
Ca    1.629605  -2.786455  3.818705
