16
Energy: -32483.6804195 eV PBE+vdW (tier 2 basis)
N    0.548354  -0.959436  0.274763
C    0.247552  -0.170814  1.539936
C    1.433353  -0.317920  2.549515
O    1.654724  0.599329  3.309568
H    -0.003226  -0.631620  -0.526507
H    0.279465  -1.962603  0.515277
H    0.128144  0.884639  1.275149
C    -1.060664  -0.746073  2.144629
C    -0.734252  -2.155878  2.607660
O    -0.612248  -2.411943  3.840445
O    -0.324889  -3.003102  1.716222
H    -1.868934  -0.741388  1.399017
H    -1.360835  -0.126336  2.995100
O    2.033900  -1.490854  2.498796
H    1.546229  -0.918217  0.040984
Ca    1.349823  -3.327721  3.309465
