16
Energy: -32482.5413704 eV PBE+vdW (tier 2 basis)
N    0.044758  0.102554  0.080806
C    0.120014  -0.113186  1.521743
C    1.446032  -0.640377  2.032237
O    2.224779  -1.334896  1.268488
H    0.392439  -0.700944  -0.444682
H    0.564133  0.927381  -0.217111
H    -0.063726  0.842522  2.034172
C    -0.967199  -1.125997  1.977925
C    -2.426213  -0.708995  1.683383
O    -3.315056  -1.050073  2.424561
O    -2.633476  0.002525  0.566466
H    -0.905894  -1.292429  3.058579
H    -0.795652  -2.093609  1.477562
O    1.786566  -0.452356  3.265127
H    -1.752097  0.153008  0.116386
Ca    3.522686  -1.651182  2.951266
