16
Energy: -32483.9245904 eV PBE+vdW (tier 2 basis)
N    -0.307603  0.764745  0.434120
C    0.165848  -0.209803  1.479586
C    1.687945  -0.390350  1.094171
O    2.042188  0.261892  0.092327
H    0.675204  0.854323  -0.102955
H    -0.620551  1.661598  0.813844
H    0.120095  0.273482  2.463217
C    -0.684327  -1.496083  1.500154
C    0.040849  -2.502637  2.381775
O    0.608882  -3.504056  1.836707
O    0.260519  -2.192380  3.601517
H    -0.790132  -1.918402  0.492379
H    -1.677557  -1.274950  1.913904
O    2.418633  -1.129958  1.824327
H    -1.038840  0.386346  -0.174552
Ca    2.328846  -2.875767  3.099480
