16
Energy: -32483.841517 eV PBE+vdW (tier 2 basis)
N    0.402828  -0.275105  0.547534
C    0.109030  -0.111392  2.021053
C    1.278523  -0.715099  2.818349
O    2.138830  -1.402580  2.172977
H    0.036199  0.491569  -0.023231
H    -0.057529  -1.227719  0.279523
H    -0.058208  0.944538  2.259787
C    -1.125785  -0.994382  2.361929
C    -0.704261  -2.419834  1.964452
O    -0.282687  -3.205630  2.901662
O    -0.625250  -2.657161  0.742133
H    -1.996240  -0.672307  1.776780
H    -1.342262  -0.894805  3.428704
O    1.183926  -0.744269  4.079093
H    1.418578  -0.382649  0.412010
Ca    1.623310  -2.962175  3.806246
