16
Energy: -32483.5193609 eV PBE+vdW (tier 2 basis)
N    -0.061965  -0.127666  -0.063156
C    0.123639  -0.012595  1.373780
C    1.625456  -0.145444  1.716234
O    2.278821  -1.200219  1.656115
H    0.479414  0.542450  -0.606701
H    0.103265  -1.077966  -0.396325
H    -0.204114  0.995214  1.676013
C    -0.784263  -1.019287  2.130613
C    -0.182200  -2.402375  2.071018
O    0.348035  -2.902129  3.122434
O    0.011154  -2.959811  0.928329
H    -1.759921  -0.992357  1.627761
H    -0.903760  -0.723616  3.178015
O    2.307797  0.962496  1.982240
H    1.716225  1.737098  2.033220
Ca    1.988760  -3.430600  1.776216
