16
Energy: -32483.1075287 eV PBE+vdW (tier 2 basis)
N    -0.293441  0.055338  -0.281704
C    0.072893  -0.048273  1.168105
C    1.275896  -0.953172  1.395576
O    1.900848  -1.046469  2.407006
H    -1.215499  0.500728  -0.331795
H    0.344085  0.712999  -0.740408
H    0.406743  0.931204  1.547540
C    -1.124485  -0.476345  2.042081
C    -1.896539  -1.755524  1.652489
O    -1.350366  -2.468899  0.665662
O    -2.920437  -2.037493  2.228152
H    -1.848573  0.350240  2.082816
H    -0.772293  -0.605860  3.074925
O    1.641273  -1.715694  0.248923
H    2.443624  -2.208014  0.520703
Ca    -0.290729  -2.283766  -1.023072
