16
Energy: -32482.9673248 eV PBE+vdW (tier 2 basis)
N    -0.199982  0.559749  0.023699
C    -0.063419  0.049523  1.369639
C    1.319981  -0.582156  1.620732
O    2.192783  -0.134412  2.301420
H    -0.290991  -0.165895  -0.684525
H    0.518307  1.234220  -0.230533
H    -0.057602  0.905362  2.058403
C    -1.274741  -0.833917  1.777245
C    -1.152855  -2.180989  1.129326
O    -1.144753  -2.268151  -0.158440
O    -0.815285  -3.200878  1.829069
H    -2.170597  -0.307170  1.423246
H    -1.317565  -0.953584  2.864543
O    1.658145  -1.761301  0.814733
H    2.619445  -1.828735  0.994714
Ca    0.427006  -3.722808  0.134042
