29
Energy: -38242.9617341 eV PBE+vdW (tier 2 basis)
C    1.681300  -0.964979  1.679171
C    0.736017  -0.893671  2.827720
O    1.169503  -1.063787  4.032833
H    2.158488  -1.955046  1.666851
H    2.480317  -0.223325  1.814838
H    1.188684  -0.792895  0.717265
N    -0.542505  -0.660696  2.613076
C    -1.603276  -0.596115  3.614705
C    -2.896891  -0.784042  2.763251
O    -2.850643  -0.388468  1.598838
H    -0.923624  -0.505484  1.663810
H    -1.448337  -1.405578  4.340879
C    -1.605529  0.798192  4.302862
C    -2.337847  0.890648  5.642954
C    -1.647775  0.223027  6.803824
O    -0.495330  -0.252730  6.732787
O    -2.247190  0.135556  7.968182
H    -2.056416  1.519720  3.608224
H    -0.566043  1.128012  4.438715
H    -3.372213  0.517266  5.581571
H    -2.442599  1.954737  5.922135
N    -4.011090  -1.293294  3.328327
C    -4.186110  -2.024569  4.576876
H    -4.797264  -1.316969  2.678464
H    -4.483342  -3.061799  4.374364
H    -4.965917  -1.559542  5.194925
H    -3.253102  -2.053499  5.148848
H    -3.136696  0.543781  7.975264
Ca    1.419940  -1.000200  6.075175
