29
Energy: -38244.0114072 eV PBE+vdW (tier 2 basis)
C    1.331036  2.009980  2.617940
C    0.187151  1.066320  2.419096
O    0.014291  0.493076  1.313427
H    2.270870  1.452018  2.499637
H    1.333150  2.504794  3.594621
H    1.313694  2.768514  1.824618
N    -0.639911  0.856733  3.466708
C    -1.802925  -0.045755  3.577584
C    -1.429129  -1.489575  3.168422
O    -1.515837  -1.869369  1.964399
H    -0.406916  1.366449  4.314036
H    -1.994366  -0.064395  4.655276
C    -3.146339  0.404183  2.901312
C    -3.218111  1.753635  2.169508
C    -3.109499  1.676329  0.662022
O    -2.694068  0.676969  0.059388
O    -3.458014  2.718238  -0.064233
H    -3.892001  0.429447  3.703665
H    -3.477277  -0.386594  2.218274
H    -2.442563  2.460125  2.510152
H    -4.171910  2.245952  2.412238
N    -1.033665  -2.337562  4.108939
C    -0.880894  -2.111156  5.551011
H    -0.824722  -3.275274  3.765124
H    -0.485695  -3.029575  5.993579
H    -1.846309  -1.895696  6.026089
H    -0.166844  -1.304383  5.754411
H    -3.819248  3.455215  0.466663
Ca    -1.133404  -0.868351  0.061207
