29
Energy: -38243.4013905 eV PBE+vdW (tier 2 basis)
C    0.412204  0.423867  0.831235
C    0.143343  -0.445911  2.008813
O    1.066132  -1.136299  2.538707
H    1.278922  1.054422  1.077722
H    -0.426750  1.069881  0.556555
H    0.711599  -0.189273  -0.030498
N    -1.079100  -0.514270  2.583712
C    -2.415909  -0.418755  1.964802
C    -3.405513  -0.941522  3.002868
O    -3.198745  -2.065470  3.613439
H    -1.050816  -1.028985  3.461038
H    -2.652536  0.634120  1.751155
C    -2.557683  -1.217491  0.631985
C    -2.445253  -2.763419  0.682714
C    -1.201870  -3.242577  1.391442
O    -0.124895  -3.451376  0.769212
O    -1.216191  -3.355347  2.694449
H    -1.813641  -0.818675  -0.068888
H    -3.536382  -0.965397  0.200677
H    -2.413128  -3.126967  -0.351296
H    -3.327632  -3.207087  1.163132
N    -4.495864  -0.263980  3.263854
C    -5.571326  -0.682863  4.172384
H    -4.598076  0.645280  2.816130
H    -6.533416  -0.493590  3.684276
H    -5.513907  -0.097089  5.098507
H    -5.466261  -1.745608  4.400642
H    -2.383492  -2.642982  3.250188
Ca    1.145206  -3.334086  2.592772
