29
Energy: -38243.838486 eV PBE+vdW (tier 2 basis)
C    -3.787578  -0.523875  -0.223486
C    -2.880068  -0.363357  0.946211
O    -1.632129  -0.547831  0.841320
H    -4.835312  -0.304815  0.006366
H    -3.706494  -1.552402  -0.601757
H    -3.446053  0.137463  -1.031614
N    -3.409168  -0.007376  2.143983
C    -2.508804  0.193202  3.270207
C    -2.125533  -1.139143  3.953699
O    -0.970251  -1.599752  3.690796
H    -4.410687  0.149646  2.215659
H    -1.591345  0.475929  2.757430
C    -2.715989  1.407051  4.183220
C    -1.387558  1.757518  4.910660
C    -0.194248  2.054052  4.022561
O    0.305249  1.262736  3.192339
O    0.308376  3.250476  4.223592
H    -3.487609  1.261252  4.948377
H    -3.035357  2.255410  3.561365
H    -1.082060  0.922351  5.562660
H    -1.550752  2.623330  5.561009
N    -2.942622  -1.796406  4.761112
C    -4.311753  -1.480838  5.166209
H    -2.552182  -2.666389  5.128878
H    -4.950188  -2.353116  4.983398
H    -4.707230  -0.637421  4.596033
H    -4.344869  -1.237474  6.235636
H    1.102452  3.400768  3.665616
Ca    0.224762  -0.731990  2.054521
