29
Energy: -38243.4394678 eV PBE+vdW (tier 2 basis)
C    -1.760187  -1.900208  0.730299
C    -0.841186  -1.057922  1.550323
O    0.429324  -1.198529  1.426491
H    -2.816098  -1.702932  0.937714
H    -1.543188  -2.962902  0.901028
H    -1.556639  -1.701987  -0.332018
N    -1.370787  -0.172395  2.385628
C    -0.666672  0.901979  3.099575
C    0.084912  0.377994  4.346844
O    1.052813  -0.436017  4.181118
H    -2.423653  -0.059479  2.370037
H    0.150911  1.255758  2.446844
C    -1.610509  2.110221  3.299564
C    -2.956575  1.946973  4.047471
C    -4.091922  1.354909  3.229080
O    -3.957589  0.446579  2.411997
O    -5.259349  1.911216  3.520229
H    -1.815510  2.514252  2.298323
H    -1.030249  2.897798  3.801677
H    -3.278805  2.929040  4.414300
H    -2.888345  1.302713  4.940887
N    -0.237435  0.817578  5.547924
C    0.423463  0.456640  6.803775
H    -1.002900  1.483284  5.610719
H    0.817067  1.361871  7.281362
H    1.239759  -0.237772  6.597897
H    -0.302835  -0.016162  7.475826
H    -5.969284  1.473541  3.003944
Ca    2.108468  -1.455043  2.629140
