29
Energy: -38243.2594511 eV PBE+vdW (tier 2 basis)
C    0.958495  -0.803973  0.422995
C    0.496565  0.464821  1.055347
O    1.318368  1.397051  1.315228
H    1.569265  -0.577963  -0.460415
H    0.140672  -1.475825  0.143034
H    1.615481  -1.325493  1.135573
N    -0.810429  0.610558  1.339195
C    -1.428775  1.674587  2.150463
C    -1.462205  3.094061  1.537866
O    -2.119411  3.957184  2.079049
H    -1.410115  -0.177239  1.104704
H    -2.496951  1.419442  2.192417
C    -0.875884  1.614799  3.614557
C    -1.123826  2.815650  4.530215
C    -0.267901  4.019997  4.236004
O    0.666357  3.996391  3.407025
O    -0.460341  5.143761  4.879481
H    0.201589  1.412219  3.579887
H    -1.334715  0.734253  4.081151
H    -0.884555  2.512656  5.565141
H    -2.178775  3.126111  4.543272
N    -0.670577  3.378159  0.397247
C    -1.019290  4.625639  -0.339166
H    -0.590089  2.568383  -0.223623
H    -0.331174  4.738485  -1.183846
H    -0.934274  5.485055  0.333923
H    -2.049268  4.592685  -0.715186
H    -1.206616  5.102078  5.511030
Ca    1.635679  3.504316  1.545390
