29
Energy: -38243.604058 eV PBE+vdW (tier 2 basis)
C    -1.836416  -0.828028  -0.377942
C    -1.332430  -0.645916  1.018010
O    -0.202666  -1.117659  1.344802
H    -1.105380  -0.411045  -1.083492
H    -2.813900  -0.370092  -0.559981
H    -1.900298  -1.905198  -0.587830
N    -2.119387  0.019521  1.879527
C    -2.001945  0.307342  3.330967
C    -0.769974  1.153104  3.701081
O    0.409050  0.782391  3.417633
H    -2.994821  0.341301  1.475003
H    -2.876428  0.944555  3.518340
C    -2.224092  -0.918776  4.256047
C    -1.157532  -2.022726  4.329661
C    0.036055  -1.656555  5.172832
O    0.047627  -1.173403  6.262083
O    1.280477  -1.980962  4.519479
H    -3.167925  -1.378217  3.933100
H    -2.404190  -0.533652  5.270301
H    -0.866645  -2.402397  3.344936
H    -1.608740  -2.880499  4.856375
N    -1.005761  2.262283  4.384527
C    0.011720  3.162849  4.927911
H    -1.975262  2.509867  4.568620
H    -0.100625  3.223094  6.017113
H    -0.116848  4.163003  4.497180
H    1.003117  2.779398  4.680108
H    1.953273  -1.968402  5.234738
Ca    1.568949  -0.778180  2.483870
