29
Energy: -38243.5215622 eV PBE+vdW (tier 2 basis)
C    0.510196  0.455862  -0.325671
C    0.190939  0.114486  1.094907
O    0.895956  -0.741063  1.708279
H    1.550902  0.800446  -0.390343
H    -0.147964  1.215990  -0.758530
H    0.442708  -0.461623  -0.927489
N    -0.853797  0.741550  1.661764
C    -1.528556  0.596873  2.973780
C    -0.632940  0.921043  4.177373
O    0.517914  0.399870  4.313686
H    -1.318688  1.402165  1.044709
H    -2.292879  1.382108  2.938120
C    -2.338712  -0.715904  3.151983
C    -1.589867  -2.044810  3.339900
C    -0.999873  -2.214734  4.715522
O    -1.524096  -2.020636  5.768787
O    0.360842  -2.685868  4.668883
H    -2.980260  -0.805588  2.265308
H    -3.017007  -0.570113  4.005207
H    -0.855877  -2.235541  2.550835
H    -2.333079  -2.855871  3.258837
N    -1.105004  1.724161  5.118607
C    -2.395696  2.421764  5.184569
H    -0.480792  1.840660  5.917435
H    -2.542968  3.068039  4.310875
H    -2.385555  3.057667  6.073889
H    -3.227542  1.713231  5.280180
H    0.543997  -3.020419  5.573963
Ca    1.830699  -1.143745  3.584639
