29
Energy: -38244.1348838 eV PBE+vdW (tier 2 basis)
C    0.447867  0.453398  0.269742
C    0.051505  0.131389  1.675051
O    0.924710  -0.053036  2.563767
H    0.994768  1.406951  0.267392
H    -0.397404  0.526609  -0.422180
H    1.147511  -0.312199  -0.090688
N    -1.265940  0.044836  1.953166
C    -1.920697  -0.232053  3.245605
C    -1.473599  0.788465  4.317520
O    -0.452005  0.572850  5.034406
H    -1.893243  0.196623  1.168454
H    -2.976126  -0.029754  3.037079
C    -1.849485  -1.701002  3.794046
C    -1.080915  -2.775168  3.001878
C    0.196443  -3.249212  3.645085
O    0.939136  -2.542511  4.353360
O    0.474773  -4.504554  3.378182
H    -2.886895  -2.041886  3.878839
H    -1.472423  -1.665556  4.822967
H    -0.803085  -2.432113  1.991138
H    -1.709120  -3.657165  2.829980
N    -2.189215  1.891255  4.490880
C    -3.401173  2.323983  3.784910
H    -1.841164  2.505135  5.227919
H    -3.221045  2.422688  2.707881
H    -3.679773  3.308166  4.171286
H    -4.237722  1.638693  3.970920
H    1.323530  -4.774410  3.790508
Ca    1.456786  -0.401421  4.639908
