29
Energy: -38243.3505817 eV PBE+vdW (tier 2 basis)
C    -0.391080  0.558690  0.203826
C    -0.263802  0.037888  1.593902
O    0.587803  -0.885683  1.862412
H    -0.672936  -0.262590  -0.469727
H    0.589448  0.922573  -0.133253
H    -1.128062  1.363429  0.122170
N    -1.039028  0.543457  2.547113
C    -0.890578  0.214123  3.969617
C    -1.288226  -1.255889  4.228592
O    -0.341194  -2.106970  4.377096
H    -1.632876  1.399234  2.356436
H    0.185773  0.237788  4.207612
C    -1.582465  1.244023  4.885659
C    -1.140873  2.706855  4.692882
C    -1.855103  3.428153  3.564953
O    -2.284397  2.881536  2.547270
O    -1.964552  4.729625  3.790464
H    -1.348610  0.948565  5.917581
H    -2.672329  1.189883  4.791166
H    -0.057797  2.789468  4.501748
H    -1.313697  3.267846  5.619571
N    -2.540012  -1.677313  4.274495
C    -3.801821  -0.966213  4.037932
H    -2.626897  -2.671433  4.491915
H    -3.663661  -0.142795  3.332653
H    -4.223186  -0.594650  4.980259
H    -4.507962  -1.678733  3.599184
H    -2.404929  5.158949  3.026705
Ca    1.309365  -2.446964  3.063847
