29
Energy: -38243.7257157 eV PBE+vdW (tier 2 basis)
C    -0.364332  0.361902  -0.275001
C    -0.506875  -0.069813  1.143546
O    0.491826  -0.460150  1.815027
H    0.383218  1.165181  -0.328532
H    -1.302457  0.708500  -0.720418
H    0.030096  -0.475812  -0.866784
N    -1.735098  -0.033001  1.719072
C    -1.877485  -0.429946  3.113052
C    -1.993650  -1.960125  3.276737
O    -0.927995  -2.580721  3.572534
H    -2.532920  0.259678  1.160688
H    -0.878612  -0.237787  3.489868
C    -2.743437  0.452627  4.035743
C    -1.847269  1.382652  4.905432
C    -0.766762  0.678575  5.719790
O    0.121211  -0.032197  5.211873
O    -0.730043  0.828340  7.026150
H    -3.358877  -0.176431  4.692270
H    -3.438863  1.085440  3.468599
H    -2.488426  1.981121  5.564983
H    -1.318774  2.096916  4.253411
N    -3.155897  -2.566315  3.096251
C    -3.379859  -4.012046  3.192490
H    -3.963127  -1.989344  2.871599
H    -3.733461  -4.394660  2.227662
H    -4.135950  -4.215744  3.959673
H    -2.440677  -4.500146  3.461358
H    -1.437812  1.410841  7.365057
Ca    1.010308  -1.499536  3.709870
