29
Energy: -38243.536764 eV PBE+vdW (tier 2 basis)
C    0.528237  0.015723  -0.158076
C    0.326550  0.590950  1.211899
O    1.219619  1.302765  1.741113
H    0.732296  0.831539  -0.864206
H    -0.322249  -0.566758  -0.527064
H    1.416634  -0.630794  -0.141153
N    -0.836429  0.291850  1.824809
C    -1.396692  0.589384  3.167427
C    -2.154728  1.928230  3.140407
O    -1.584817  3.073846  3.068367
H    -1.447805  -0.292077  1.260832
H    -2.175897  -0.178059  3.258599
C    -0.464698  0.340578  4.399710
C    0.057702  1.520985  5.256092
C    1.118640  2.298198  4.534685
O    2.330734  1.960889  4.582203
O    0.767432  3.262971  3.721330
H    0.378250  -0.278684  4.066890
H    -1.042484  -0.290155  5.086250
H    0.508460  1.090466  6.158442
H    -0.757444  2.184088  5.574972
N    -3.472270  1.885711  3.158867
C    -4.349345  3.062398  3.139271
H    -3.920594  0.972988  3.171743
H    -3.847576  3.901034  3.629517
H    -5.273117  2.813947  3.669882
H    -4.586696  3.337293  2.103399
H    -0.526019  3.145914  3.343858
Ca    2.655304  2.730778  2.538935
