29
Energy: -38243.8336695 eV PBE+vdW (tier 2 basis)
C    -0.541382  0.462663  -0.290204
C    -0.636496  0.001774  1.122802
O    0.385277  -0.401546  1.752461
H    -1.491783  0.826930  -0.693449
H    -0.177974  -0.366605  -0.913209
H    0.212223  1.259320  -0.354911
N    -1.842870  0.023399  1.740613
C    -1.941214  -0.400972  3.130697
C    -2.059653  -1.932926  3.268329
O    -0.987286  -2.563774  3.518666
H    -2.658402  0.337846  1.220843
H    -0.930710  -0.215833  3.481489
C    -2.776027  0.468538  4.092695
C    -1.848275  1.392604  4.925995
C    -0.757102  0.692271  5.717190
O    0.126312  -0.052395  5.236071
O    -0.801801  0.968465  7.000267
H    -3.360517  -0.168149  4.769922
H    -3.497953  1.099972  3.558059
H    -2.443628  1.989659  5.624961
H    -1.334497  2.100848  4.254956
N    -3.229847  -2.529493  3.115051
C    -3.460043  -3.975215  3.194326
H    -4.041828  -1.943287  2.935117
H    -4.155237  -4.192532  4.013891
H    -2.507653  -4.477926  3.375483
H    -3.893122  -4.329183  2.251436
H    -0.057974  0.545134  7.481752
Ca    0.942464  -1.473589  3.607700
