29
Energy: -38243.305004 eV PBE+vdW (tier 2 basis)
C    0.805901  1.493827  1.557938
C    0.102133  0.205738  1.820542
O    0.766034  -0.869809  1.986854
H    1.458270  1.715318  2.415137
H    0.125431  2.336776  1.400266
H    1.459227  1.384812  0.682231
N    -1.234387  0.198279  1.894789
C    -2.057212  -0.960590  2.301818
C    -2.193537  -1.923137  1.102225
O    -1.214016  -2.692655  0.823775
H    -1.712521  1.084917  1.748183
H    -1.467087  -1.513898  3.045157
C    -3.357602  -0.478383  2.975090
C    -3.912046  -1.397103  4.075191
C    -3.994868  -2.869166  3.728279
O    -3.237426  -3.434367  2.948034
O    -4.958334  -3.485833  4.412976
H    -4.138954  -0.264455  2.229361
H    -3.147275  0.491143  3.448447
H    -4.896714  -1.038788  4.398905
H    -3.270807  -1.335817  4.970716
N    -3.249419  -1.872208  0.316882
C    -3.451227  -2.738179  -0.848067
H    -4.021026  -1.273928  0.595588
H    -4.333819  -2.388854  -1.389723
H    -3.607335  -3.774906  -0.523992
H    -2.579244  -2.691622  -1.508567
H    -4.935660  -4.444222  4.211223
Ca    0.786521  -2.924888  1.451742
