29
Energy: -38244.2323894 eV PBE+vdW (tier 2 basis)
C    -1.197664  -0.200824  0.128961
C    -0.928850  -0.207267  1.600101
O    0.245560  -0.338746  2.036354
H    -0.769369  -1.108013  -0.317491
H    -0.671149  0.651974  -0.322243
H    -2.260362  -0.138377  -0.126519
N    -1.982906  -0.072780  2.430515
C    -2.021632  -0.021885  3.905802
C    -1.157589  1.133862  4.462542
O    0.092520  1.005033  4.604053
H    -2.885429  0.025286  1.974205
H    -3.067078  0.235518  4.112667
C    -1.729155  -1.353883  4.685938
C    -1.386474  -2.638469  3.909336
C    0.042674  -3.097448  4.042542
O    1.019547  -2.339993  4.199677
O    0.175402  -4.401797  3.966941
H    -2.628176  -1.560567  5.276442
H    -0.940990  -1.153646  5.421839
H    -1.575627  -2.538172  2.827518
H    -2.029270  -3.468732  4.225175
N    -1.792279  2.242467  4.814436
C    -1.156456  3.433131  5.381653
H    -2.800184  2.276981  4.684068
H    -1.774158  3.807626  6.204704
H    -1.065447  4.214621  4.616437
H    -0.165021  3.168183  5.756339
H    1.118127  -4.666352  4.033490
Ca    1.624436  -0.258731  3.702519
