26
Energy: -243766.149328 eV PBE+vdW (tier 2 basis)
C    -0.305886  -0.623020  -0.449503
C    -0.525014  0.074580  0.854598
O    0.331325  0.090127  1.755631
H    0.596147  -0.217903  -0.926455
H    -1.153299  -0.543316  -1.138856
H    -0.105026  -1.684047  -0.247540
N    -1.736690  0.703280  1.048995
C    -1.903349  1.413703  2.298675
C    -3.315744  1.746827  2.788688
O    -3.412118  2.673269  3.661409
H    -2.319091  0.906885  0.242963
H    -1.544992  0.700867  3.065815
C    -0.977953  2.676927  2.375373
C    -0.189254  2.628423  3.662194
O    0.700247  1.697542  3.790308
O    -0.446101  3.406243  4.614273
H    -1.550075  3.606060  2.302095
H    -0.282379  2.643780  1.529256
N    -4.401270  1.077404  2.428352
C    -4.579497  -0.112135  1.582505
H    -5.249565  1.429227  2.872785
H    -5.464884  -0.643330  1.945437
H    -3.717913  -0.778856  1.655668
H    -4.754252  0.170692  0.536568
H    0.671295  1.061883  2.979275
Ba    -2.602208  4.152733  5.476832
