26
Energy: -243766.674802 eV PBE+vdW (tier 2 basis)
C    -0.145386  0.255974  -0.067061
C    -0.354614  -0.048157  1.381356
O    0.576495  -0.534231  2.082039
H    -1.021323  0.693390  -0.557027
H    0.128187  -0.673425  -0.586078
H    0.705894  0.941796  -0.171506
N    -1.573670  0.201470  1.903960
C    -2.041510  -0.082138  3.270954
C    -1.384780  0.868963  4.296268
O    -0.195463  0.675980  4.677754
H    -2.265331  0.583988  1.265267
H    -3.116049  0.134380  3.256769
C    -1.863156  -1.590024  3.628679
C    -1.665871  -1.831131  5.107467
O    -0.393962  -2.371936  5.379466
O    -2.450646  -1.597761  5.979624
H    -1.050471  -2.033346  3.047510
H    -2.781481  -2.120001  3.342697
N    -2.129545  1.868329  4.744095
C    -1.702600  2.871370  5.719684
H    -3.092236  1.925923  4.420903
H    -1.873106  3.873920  5.310569
H    -0.640623  2.735281  5.933564
H    -2.283237  2.756307  6.643341
H    -0.417725  -2.641318  6.322874
Ba    1.715206  -0.835601  4.239832
