26
Energy: -243766.47518 eV PBE+vdW (tier 2 basis)
C    0.849381  0.561809  0.143638
C    0.427301  0.057883  1.487285
O    1.248138  -0.562604  2.225466
H    1.141017  -0.298759  -0.475327
H    1.741018  1.192488  0.253577
H    0.071115  1.126440  -0.379955
N    -0.841746  0.281681  1.868238
C    -1.555090  -0.212136  3.064499
C    -1.005125  0.417876  4.359806
O    0.077109  -0.014867  4.872390
H    -1.416404  0.787106  1.199603
H    -2.583396  0.142828  2.941649
C    -1.618682  -1.744158  3.132708
C    -2.492528  -2.175555  4.300523
O    -2.564132  -3.509357  4.392146
O    -3.041844  -1.385673  5.042704
H    -0.629880  -2.213534  3.217474
H    -2.049623  -2.134301  2.199362
N    -1.649042  1.428973  4.916280
C    -2.961598  1.981193  4.562004
H    -1.227851  1.769701  5.780193
H    -3.741953  1.221294  4.694998
H    -2.967965  2.368800  3.536704
H    -3.166048  2.816968  5.236398
H    -3.170301  -3.742175  5.126262
Ba    2.226131  -1.017924  4.398379
