26
Energy: -243766.560805 eV PBE+vdW (tier 2 basis)
C    -0.289016  -0.300924  0.411961
C    -0.543446  -0.689345  1.830455
O    0.304901  -0.462881  2.737490
H    0.082712  0.730380  0.375581
H    -1.169062  -0.396621  -0.232306
H    0.506463  -0.949317  0.015384
N    -1.706466  -1.307827  2.119316
C    -2.075549  -1.871216  3.422996
C    -2.011310  -0.803593  4.538321
O    -1.030696  -0.751198  5.335225
H    -2.318189  -1.525491  1.337355
H    -3.131973  -2.147191  3.319420
C    -1.323822  -3.179745  3.822199
C    0.035360  -3.391397  3.198690
O    1.101580  -3.210271  4.110210
O    0.249982  -3.710157  2.064834
H    -1.921311  -4.026271  3.459513
H    -1.273670  -3.250010  4.913709
N    -3.030464  0.038821  4.656852
C    -4.259406  0.105667  3.857564
H    -2.946007  0.697741  5.430456
H    -4.855299  0.944767  4.226432
H    -4.857331  -0.808195  3.969342
H    -4.035820  0.285220  2.799588
H    1.875252  -3.624894  3.670622
Ba    1.395586  -0.575047  4.952791
