26
Energy: -243767.139116 eV PBE+vdW (tier 2 basis)
C    -1.108182  0.257101  0.221594
C    -0.813483  0.063656  1.677042
O    0.361810  0.124894  2.114726
H    -0.744250  1.247875  -0.083343
H    -2.170174  0.172571  -0.031013
H    -0.541354  -0.482137  -0.359701
N    -1.865491  -0.165987  2.496083
C    -1.852610  -0.344641  3.956934
C    -0.846861  0.593647  4.657551
O    0.264096  0.176304  5.082236
H    -2.780740  -0.196492  2.054861
H    -2.844449  -0.000006  4.282509
C    -1.802189  -1.818248  4.427351
C    -0.800660  -2.775725  3.818900
O    -1.344024  -3.960049  3.600775
O    0.389169  -2.540405  3.581026
H    -2.795734  -2.259860  4.284506
H    -1.621762  -1.833262  5.515388
N    -1.218104  1.858960  4.843238
C    -2.480074  2.509504  4.476343
H    -0.539441  2.422389  5.354015
H    -3.325661  2.086284  5.034895
H    -2.666923  2.439613  3.398517
H    -2.402120  3.568201  4.738178
H    -0.668475  -4.595367  3.280182
Ba    2.136686  -0.676823  3.672206
