26
Energy: -243766.337301 eV PBE+vdW (tier 2 basis)
C    -2.193285  -2.024258  1.281942
C    -1.036754  -1.502035  2.086766
O    0.084282  -1.975793  2.093743
H    -3.176480  -1.792416  1.712298
H    -2.084385  -3.103172  1.130892
H    -2.156550  -1.555938  0.285541
N    -1.307457  -0.378012  2.925353
C    -0.121577  0.451173  3.243355
C    0.850493  -0.351779  4.117501
O    0.391669  -1.068869  5.061159
H    -2.110760  0.175108  2.620790
H    0.392936  0.702264  2.304455
C    -0.508285  1.793304  3.894020
C    -1.326646  1.788533  5.168476
O    -1.348680  2.981480  5.724810
O    -1.942835  0.819411  5.636134
H    -1.078446  2.399330  3.168631
H    0.397928  2.386159  4.083724
N    2.153646  -0.225836  3.933495
C    2.854822  0.460768  2.842578
H    2.722384  -0.771936  4.579993
H    2.624628  1.532546  2.825152
H    2.609953  0.001454  1.876227
H    3.929088  0.352754  3.013978
H    -1.922158  2.988872  6.521039
Ba    -1.864528  -1.731114  5.585948
