26
Energy: -243766.453254 eV PBE+vdW (tier 2 basis)
C    -0.223290  -0.797627  -0.142671
C    -0.720193  -0.538447  1.239496
O    -0.664242  -1.440249  2.126753
H    -0.997039  -1.390266  -0.656416
H    0.691862  -1.398307  -0.112385
H    -0.050428  0.115508  -0.722369
N    -1.237243  0.675043  1.501194
C    -2.100905  1.080848  2.627422
C    -1.316750  1.232309  3.947290
O    -0.891506  0.219685  4.577378
H    -1.253671  1.309873  0.707906
H    -2.462100  2.077703  2.341487
C    -3.346203  0.189572  2.841534
C    -4.086519  -0.087213  1.534362
O    -5.269191  0.544113  1.499851
O    -3.631603  -0.785891  0.653200
H    -4.005624  0.684587  3.564604
H    -3.059638  -0.786461  3.251159
N    -1.146256  2.466005  4.399896
C    -0.470084  2.824477  5.647174
H    -1.505743  3.232257  3.836022
H    0.556414  3.154551  5.441775
H    -0.451466  1.957330  6.311598
H    -1.019168  3.642093  6.125699
H    -5.717794  0.325896  0.655661
Ba    -0.303622  -2.156391  4.383382
