26
Energy: -243766.291705 eV PBE+vdW (tier 2 basis)
C    0.934305  -1.265795  0.149724
C    -0.006572  -0.128578  0.379578
O    0.043444  0.901380  -0.344678
H    0.914388  -2.023356  0.937203
H    1.945779  -0.835888  0.112195
H    0.753711  -1.733567  -0.826776
N    -0.889257  -0.136942  1.422082
C    -1.870649  -1.178397  1.814873
C    -1.613512  -2.556597  1.211282
O    -1.818810  -2.776049  -0.039050
H    -1.280504  0.795413  1.572710
H    -1.867464  -1.269507  2.909494
C    -3.282796  -0.668811  1.360675
C    -3.152206  0.012710  0.002091
O    -2.664818  -0.667677  -0.991980
O    -3.372215  1.243017  -0.111944
H    -3.658338  0.061710  2.086068
H    -4.002493  -1.499030  1.319555
N    -1.250689  -3.540538  2.003581
C    -1.059517  -4.936474  1.594344
H    -1.092525  -3.318005  2.984629
H    -1.603835  -5.584822  2.289962
H    0.008210  -5.186880  1.630826
H    -1.438643  -5.073940  0.579458
H    -2.216501  -1.886937  -0.542797
Ba    -1.712308  1.727066  -1.987780
