26
Energy: -243766.073059 eV PBE+vdW (tier 2 basis)
C    -0.911663  -1.106496  -0.238852
C    -0.465808  -0.256688  0.915992
O    0.147596  0.795092  0.809362
H    -1.723765  -0.583675  -0.763184
H    -1.263956  -2.101896  0.054563
H    -0.083680  -1.202736  -0.950609
N    -0.786414  -0.735967  2.194988
C    -0.514428  0.112159  3.328525
C    0.288301  -0.627170  4.396642
O    -0.178078  -0.788278  5.582112
H    -1.365038  -1.564161  2.295995
H    0.125044  0.907279  2.889326
C    -1.815991  0.785690  3.858686
C    -1.587682  1.945764  4.790339
O    -1.384159  3.085795  4.170640
O    -1.577106  1.854275  6.035979
H    -2.459227  0.048284  4.355629
H    -2.340305  1.162983  2.972554
N    1.484113  -1.108104  4.096094
C    2.228774  -1.008824  2.836209
H    1.926251  -1.644507  4.841783
H    2.012694  -1.873192  2.195700
H    3.296704  -0.999036  3.075166
H    1.976826  -0.089241  2.299170
H    -1.241297  3.817646  4.809109
Ba    -1.152706  -0.029993  7.633084
