26
Energy: -243766.660301 eV PBE+vdW (tier 2 basis)
C    0.813497  -0.689235  0.072488
C    0.224214  -0.370348  1.404755
O    0.932787  0.046085  2.359831
H    0.071043  -1.006041  -0.667279
H    1.564518  -1.482008  0.193457
H    1.344888  0.195821  -0.302526
N    -1.120323  -0.535446  1.572423
C    -1.682264  -0.216394  2.870262
C    -1.622293  -1.385783  3.875528
O    -0.768146  -1.284412  4.804631
H    -1.677531  -0.887142  0.799603
H    -0.903351  0.441544  3.246487
C    -2.893861  0.712229  2.978847
C    -2.609538  1.730407  4.090251
O    -3.673502  2.446548  4.384983
O    -1.508176  1.873691  4.635725
H    -3.851610  0.220666  3.190135
H    -3.036534  1.283420  2.047789
N    -2.409145  -2.447937  3.771767
C    -3.411292  -2.753858  2.753309
H    -2.252782  -3.159752  4.487384
H    -4.347744  -3.050915  3.239571
H    -3.066801  -3.579297  2.117248
H    -3.613820  -1.880096  2.127729
H    -3.466960  3.112760  5.074865
Ba    0.937729  0.584496  4.888738
