26
Energy: -243766.631259 eV PBE+vdW (tier 2 basis)
C    0.114031  -1.353706  -0.060764
C    -0.161048  -0.552868  1.169135
O    0.047536  0.696499  1.195296
H    -0.079890  -2.424109  0.063257
H    1.157937  -1.208177  -0.367721
H    -0.514911  -0.968811  -0.876157
N    -0.651683  -1.185339  2.250160
C    -1.084011  -0.497768  3.470497
C    0.128890  -0.187986  4.380001
O    0.817230  0.847125  4.131177
H    -0.799770  -2.189177  2.181277
H    -1.452616  0.489813  3.164284
C    -2.256805  -1.209975  4.142994
C    -2.821591  -0.306786  5.236656
O    -3.793338  -0.916820  5.917663
O    -2.415336  0.823882  5.428935
H    -2.010961  -2.201602  4.554523
H    -3.051152  -1.393540  3.403533
N    0.438277  -1.025307  5.354902
C    1.553602  -0.865582  6.289147
H    -0.176503  -1.819838  5.510344
H    2.222457  -0.085138  5.921057
H    2.097674  -1.813215  6.368188
H    1.172457  -0.584752  7.279130
H    -4.152345  -0.299365  6.588722
Ba    0.918870  2.607542  2.440767
