26
Energy: -243766.245162 eV PBE+vdW (tier 2 basis)
C    -0.091371  0.055953  0.094718
C    0.012689  0.021992  1.583635
O    1.129105  -0.185778  2.154542
H    0.288689  -0.886385  -0.321446
H    0.557267  0.857828  -0.285361
H    -1.112431  0.223529  -0.262164
N    -1.096931  0.223898  2.305679
C    -1.108161  0.361264  3.764320
C    -0.902849  -1.007667  4.468131
O    0.285014  -1.274293  4.847024
H    -1.978618  0.435269  1.827418
H    -0.182278  0.889078  4.033657
C    -2.253878  1.265257  4.280083
C    -3.672898  1.153097  3.733969
O    -3.690439  1.102735  2.359304
O    -4.665388  1.167622  4.407877
H    -1.950188  2.305375  4.081318
H    -2.325333  1.167056  5.369448
N    -1.864221  -1.891956  4.678167
C    -3.282405  -1.872373  4.308742
H    -1.548727  -2.716089  5.191000
H    -3.879640  -1.329444  5.050796
H    -3.630455  -2.908972  4.269830
H    -3.420482  -1.434836  3.315752
H    -4.627472  1.129998  2.072619
Ba    2.542403  -1.053157  3.922945
