26
Energy: -243766.343523 eV PBE+vdW (tier 2 basis)
C    0.169160  -0.283236  0.175163
C    -0.553401  0.615574  1.125260
O    -0.569940  1.848938  1.001140
H    -0.160154  -0.066441  -0.848955
H    0.037668  -1.348805  0.391440
H    1.240718  -0.042034  0.218915
N    -1.207843  0.021381  2.197672
C    -1.945875  0.915436  3.063419
C    -2.251721  0.407728  4.470699
O    -3.084053  1.062955  5.174638
H    -1.512547  -0.942689  2.078352
H    -1.238248  1.743482  3.249063
C    -3.214895  1.536250  2.387872
C    -3.150944  3.033951  2.565505
O    -2.226254  3.683810  1.931965
O    -3.901182  3.624718  3.380438
H    -4.142616  1.135703  2.807791
H    -3.196679  1.295230  1.318655
N    -1.592028  -0.642755  4.926082
C    -1.700670  -1.197909  6.275877
H    -0.888264  -1.042179  4.306991
H    -1.623065  -2.288280  6.217796
H    -2.667786  -0.924975  6.704865
H    -0.892516  -0.814438  6.912200
H    -1.591324  3.034924  1.453970
Ba    -4.485192  3.044624  5.679640
