26
Energy: -243767.048763 eV PBE+vdW (tier 2 basis)
C    0.433185  -2.207195  1.490488
C    0.106793  -0.835896  1.997819
O    1.013879  0.000899  2.224613
H    0.992763  -2.111071  0.550147
H    -0.444360  -2.839876  1.321664
H    1.099233  -2.703735  2.208653
N    -1.201987  -0.546914  2.184213
C    -1.832212  0.715932  2.606815
C    -1.087872  1.978841  2.102548
O    -0.268933  2.610116  2.816551
H    -1.851836  -1.292330  1.948635
H    -2.799112  0.722734  2.082311
C    -2.235303  0.758443  4.100983
C    -1.195916  0.521513  5.181673
O    -1.637383  0.256329  6.400877
O    0.021515  0.581353  5.015893
H    -3.044779  0.026028  4.244116
H    -2.691971  1.741230  4.309612
N    -1.419035  2.378669  0.876889
C    -0.861857  3.557911  0.213662
H    -2.103038  1.835207  0.357652
H    0.009275  3.285091  -0.396709
H    -0.567896  4.292289  0.968607
H    -1.627898  3.991933  -0.436226
H    -2.611021  0.211131  6.464989
Ba    1.890767  1.739369  3.765523
