26
Energy: -243766.582534 eV PBE+vdW (tier 2 basis)
C    -0.713930  -0.200854  0.173496
C    -0.431218  0.144666  1.597808
O    0.188810  1.208002  1.900053
H    0.205979  -0.124874  -0.418977
H    -1.416811  0.545760  -0.225317
H    -1.150119  -1.196957  0.045432
N    -0.860963  -0.689871  2.556944
C    -0.863711  -0.383703  3.994827
C    0.511359  -0.690499  4.617650
O    1.426949  0.181161  4.503496
H    -1.359615  -1.524007  2.256045
H    -0.992810  0.706791  4.071898
C    -2.088685  -1.005616  4.662995
C    -3.336777  -0.195145  4.291076
O    -4.447479  -0.861579  4.620036
O    -3.286027  0.906140  3.785387
H    -1.993480  -0.962236  5.758722
H    -2.244107  -2.063967  4.402705
N    0.699966  -1.842529  5.240245
C    1.947291  -2.278011  5.870717
H    -0.089077  -2.482284  5.295657
H    1.743243  -2.586567  6.902347
H    2.659210  -1.450123  5.868273
H    2.366725  -3.128309  5.318703
H    -5.226569  -0.303701  4.414460
Ba    1.857849  2.278314  3.278321
