26
Energy: -243766.145473 eV PBE+vdW (tier 2 basis)
C    0.207726  0.561202  0.067187
C    0.129212  0.206381  1.520998
O    0.945889  0.597157  2.363406
H    -0.535782  0.051277  -0.555131
H    1.215534  0.337914  -0.302945
H    0.066395  1.646782  -0.029844
N    -0.924253  -0.594574  1.916096
C    -1.192792  -0.821499  3.329537
C    -0.274507  -1.921274  3.931520
O    -0.741253  -3.008672  4.420280
H    -1.539926  -0.995845  1.215858
H    -0.901987  0.111859  3.843076
C    -2.706621  -1.074452  3.523912
C    -3.157798  -1.054458  4.970286
O    -3.429306  0.091358  5.560599
O    -3.271568  -2.086967  5.648121
H    -2.992959  -2.043746  3.095677
H    -3.242316  -0.293608  2.965142
N    1.006705  -1.632929  3.903196
C    2.086850  -2.502504  4.354741
H    1.230057  -0.709198  3.459630
H    2.970013  -2.309872  3.737829
H    1.797652  -3.553232  4.254300
H    2.342190  -2.286864  5.401150
H    -3.368895  0.861158  4.961470
Ba    -2.112182  -4.274992  5.918114
