26
Energy: -243765.685954 eV PBE+vdW (tier 2 basis)
C    -1.239506  -1.534795  1.663660
C    -0.606788  -0.307297  2.273458
O    0.232477  -0.326704  3.143936
H    -1.206413  -1.528260  0.565116
H    -2.288613  -1.643882  1.978082
H    -0.691560  -2.408036  2.028200
N    -0.999034  0.963253  1.757616
C    -2.182410  1.257567  0.992627
C    -1.843835  1.910565  -0.370344
O    -2.770350  2.334326  -1.137078
H    -0.605095  1.715995  2.324620
H    -2.656617  0.297155  0.736766
C    -3.207982  2.120847  1.826769
C    -4.658169  1.779456  1.577576
O    -5.352226  1.137721  2.494417
O    -5.245231  2.056967  0.517883
H    -3.069809  3.189931  1.614431
H    -2.963451  1.968504  2.884918
N    -0.567823  1.960898  -0.685920
C    0.009801  2.482354  -1.919644
H    0.052858  1.562686  0.025992
H    0.500276  1.670106  -2.470327
H    0.757931  3.246020  -1.676687
H    -0.776709  2.922539  -2.536695
H    -4.851362  0.980286  3.318515
Ba    -5.033829  2.741308  -1.845700
