27
Energy: -16518.5876531 eV PBE+vdW (tier 2 basis)
N    0.921023  -0.968515  2.368946
C    0.239940  0.268691  2.006052
C    1.049551  1.159532  1.052211
O    2.253411  1.120217  0.937047
H    1.867343  -0.749988  2.692546
H    1.053939  -1.546470  1.537880
H    -0.694949  0.008621  1.484956
C    -0.100712  1.104421  3.264770
C    -0.684305  0.288743  4.424694
C    -1.917754  -0.521874  4.036307
N    -2.463053  -1.200152  5.221842
C    -3.261698  -2.266420  5.211565
N    -3.788345  -2.710977  4.061502
N    -3.545398  -2.913150  6.356669
H    -0.786273  1.913539  2.975698
H    0.816796  1.591212  3.628271
H    -0.942408  0.986023  5.238511
H    0.076041  -0.406707  4.805586
H    -1.621608  -1.289561  3.306084
H    -2.690318  0.127533  3.591782
H    -2.237452  -0.792565  6.124300
H    -4.213737  -3.626858  3.999293
H    -4.317045  -3.564960  6.414450
H    -3.040032  -2.714362  7.210219
H    -3.691905  -2.179015  3.206733
O    0.246208  2.016700  0.371492
H    0.826742  2.572344  -0.186407
