27
Energy: -16518.7095356 eV PBE+vdW (tier 2 basis)
N    -0.137830  0.204614  0.237392
C    -0.138070  0.134077  1.689481
C    1.280353  0.146950  2.251273
O    1.558748  0.680074  3.325757
H    -1.066729  0.018724  -0.139042
H    0.158096  1.117595  -0.106301
H    -0.622194  1.000360  2.179655
C    -0.903231  -1.149592  2.111076
C    -0.630772  -1.819402  3.467316
C    -0.704178  -0.989557  4.761707
N    -1.799073  -0.014061  4.818412
C    -1.659168  1.309491  4.983698
N    -0.490742  1.916142  4.775274
N    -2.737133  2.033109  5.352905
H    -0.687315  -1.901914  1.338810
H    -1.974580  -0.913038  2.023575
H    0.366079  -2.286066  3.463328
H    -1.338212  -2.658095  3.543615
H    0.227551  -0.443994  4.927365
H    -0.819956  -1.672748  5.615344
H    -2.747653  -0.374573  4.832977
H    0.289615  1.462897  4.253173
H    -3.534892  1.598328  5.797766
H    -2.727062  3.043240  5.302619
H    -0.361338  2.870622  5.086334
O    2.185694  -0.484370  1.508242
H    3.047668  -0.420546  1.968935
