27
Energy: -16518.6140876 eV PBE+vdW (tier 2 basis)
N    2.089463  0.843103  2.109112
C    0.912001  0.138828  2.593295
C    -0.198681  0.083023  1.541014
O    -0.528762  0.979926  0.806239
H    1.839231  1.767836  1.753576
H    2.533376  0.339136  1.341401
H    1.207588  -0.893752  2.830896
C    0.420196  0.815279  3.893334
C    -0.617304  0.027474  4.706209
C    -2.073032  0.258185  4.271799
N    -3.017938  -0.654859  4.928733
C    -3.261740  -1.913208  4.545820
N    -2.654543  -2.438194  3.476296
N    -4.135418  -2.660768  5.246022
H    0.049554  1.826304  3.659138
H    1.324648  0.953346  4.499411
H    -0.531629  0.306998  5.765912
H    -0.379603  -1.047394  4.661016
H    -2.212528  0.165424  3.187300
H    -2.393467  1.276377  4.524955
H    -3.395511  -0.365819  5.824472
H    -2.927180  -3.350305  3.133525
H    -4.292958  -3.634352  5.022489
H    -4.712543  -2.256022  5.971324
H    -1.938977  -1.938548  2.941403
O    -0.830847  -1.159500  1.481277
H    -1.432395  -1.096518  0.710034
