27
Energy: -16518.6217201 eV PBE+vdW (tier 2 basis)
N    0.795800  -1.032261  1.813163
C    -0.164212  -0.077441  1.255465
C    0.531639  1.085659  0.533481
O    1.665827  1.442761  0.765685
H    1.160228  -1.626810  1.067650
H    1.607005  -0.506092  2.154141
H    -0.798403  -0.599716  0.523922
C    -1.084229  0.515856  2.347148
C    -1.933403  -0.525201  3.094775
C    -1.151799  -1.262116  4.190954
N    -1.939543  -2.295530  4.880677
C    -2.706833  -2.116047  5.955111
N    -2.960030  -0.884628  6.423762
N    -3.231041  -3.176212  6.597927
H    -1.755945  1.242149  1.870386
H    -0.467915  1.088350  3.060464
H    -2.329179  -1.264322  2.380660
H    -2.814171  -0.024370  3.528618
H    -0.759948  -0.565366  4.947123
H    -0.281783  -1.753695  3.736964
H    -1.940713  -3.221846  4.466189
H    -3.319999  -0.746137  7.359083
H    -3.997913  -3.067796  7.248961
H    -2.925176  -4.118291  6.392031
H    -2.693541  -0.063670  5.896813
O    -0.284327  1.682452  -0.368240
H    0.214605  2.426319  -0.761916
