27
Energy: -16518.5629758 eV PBE+vdW (tier 2 basis)
N    -0.435393  -0.018292  -0.370066
C    -0.345247  0.131619  1.075289
C    1.075584  0.534706  1.462679
O    1.967889  0.769117  0.678649
H    0.391704  0.385683  -0.812738
H    -1.257624  0.447855  -0.745274
H    -0.991214  0.939709  1.463958
C    -0.774883  -1.175149  1.792523
C    0.089662  -2.365550  1.375898
C    -0.442478  -3.719208  1.843898
N    -0.494410  -3.880811  3.309564
C    0.505826  -4.309172  4.080166
N    0.285722  -4.583343  5.378951
N    1.735414  -4.488816  3.576469
H    -1.821196  -1.366116  1.506381
H    -0.752440  -1.014998  2.880369
H    1.125919  -2.219175  1.726851
H    0.135755  -2.385737  0.276237
H    0.149051  -4.551618  1.436619
H    -1.469662  -3.870320  1.486712
H    -1.329676  -3.554077  3.783575
H    1.052167  -4.678637  6.032553
H    2.430257  -5.030248  4.074363
H    1.985461  -4.124830  2.666218
H    -0.653312  -4.673951  5.744617
O    1.234457  0.603911  2.813421
H    2.144487  0.927569  2.964056
