27
Energy: -16518.5095748 eV PBE+vdW (tier 2 basis)
N    -0.055512  0.136600  -0.248223
C    -0.142600  0.040614  1.200579
C    1.154553  -0.446440  1.860546
O    1.852907  -1.341858  1.446011
H    0.302884  -0.737362  -0.639207
H    0.594116  0.871490  -0.528046
H    -0.360880  1.046534  1.588532
C    -1.297141  -0.922341  1.556649
C    -1.535617  -1.198040  3.046068
C    -1.891857  0.052386  3.849768
N    -2.204136  -0.319491  5.239528
C    -2.690274  0.502855  6.169223
N    -3.076213  0.023944  7.365092
N    -2.810995  1.813372  5.914990
H    -1.094361  -1.884207  1.063275
H    -2.205134  -0.518236  1.086682
H    -0.645558  -1.670365  3.492879
H    -2.359735  -1.922744  3.132372
H    -2.773147  0.545723  3.410402
H    -1.045666  0.757330  3.844568
H    -1.973738  -1.266868  5.522602
H    -3.257608  0.641258  8.145857
H    -3.325399  2.425277  6.535055
H    -2.407948  2.221028  5.081481
H    -3.148068  -0.970898  7.534293
O    1.437694  0.247881  3.008639
H    2.283037  -0.113045  3.345246
