27
Energy: -16518.985178 eV PBE+vdW (tier 2 basis)
N    0.877218  -0.699378  1.331070
C    -0.409741  -0.303372  1.953498
C    -0.366965  1.193268  2.256265
O    0.612255  1.891310  2.087857
H    1.388463  0.161709  1.103682
H    0.701135  -1.183245  0.451329
H    -1.238239  -0.448648  1.242636
C    -0.752515  -1.142904  3.210143
C    0.008004  -0.833106  4.514213
C    1.540283  -0.738120  4.402354
N    2.119758  -1.772921  3.547536
C    2.643675  -2.923398  3.933354
N    2.602674  -3.344546  5.213754
N    3.255469  -3.715820  3.026709
H    -1.824979  -1.029277  3.414995
H    -0.609447  -2.197837  2.931910
H    -0.267495  -1.608945  5.244612
H    -0.346018  0.117305  4.940012
H    2.012354  -0.755104  5.394012
H    1.829592  0.219959  3.950065
H    1.863730  -1.591002  2.535841
H    3.264215  -4.032656  5.550040
H    3.409628  -3.384143  2.084016
H    3.397833  -4.700790  3.206977
H    2.096726  -2.815072  5.910478
O    -1.542298  1.636688  2.743654
H    -1.452317  2.598043  2.900991
