27
Energy: -16518.5518338 eV PBE+vdW (tier 2 basis)
N    0.734973  -0.082053  0.198606
C    -0.199568  0.049969  1.322089
C    0.552877  0.064407  2.658153
O    0.712167  -0.896017  3.387252
H    1.350795  -0.886699  0.329968
H    1.328043  0.743811  0.117521
H    -0.711728  1.017091  1.205975
C    -1.215983  -1.092866  1.269666
C    -2.323842  -0.986737  2.321365
C    -3.245061  -2.202256  2.275563
N    -4.289180  -2.095604  3.307580
C    -5.068175  -3.091753  3.728362
N    -5.059634  -4.272956  3.094413
N    -5.865042  -2.924948  4.798909
H    -0.674545  -2.042194  1.406982
H    -1.639984  -1.101317  0.255613
H    -2.915439  -0.071358  2.151995
H    -1.877699  -0.920374  3.324815
H    -2.659766  -3.114605  2.467559
H    -3.714619  -2.289361  1.281628
H    -4.451481  -1.173411  3.699923
H    -5.487770  -5.092549  3.505113
H    -5.770471  -2.119160  5.403254
H    -6.610862  -3.576393  5.006274
H    -4.576430  -4.388579  2.213284
O    1.092079  1.284976  2.904941
H    1.632179  1.201971  3.715932
