27
Energy: -16518.5714256 eV PBE+vdW (tier 2 basis)
N    0.098446  -1.821882  1.040972
C    0.396938  -0.404850  1.179063
C    1.895981  -0.095443  1.081897
O    2.774576  -0.905030  1.275348
H    0.865209  -2.367874  1.442552
H    0.046798  -2.085044  0.057787
H    -0.114433  0.153058  0.380493
C    -0.122710  0.116010  2.544952
C    -1.639797  -0.054846  2.658929
C    -2.193220  0.105331  4.070271
N    -1.967748  1.470551  4.578991
C    -2.539164  1.999049  5.660189
N    -2.381862  3.305172  5.941598
N    -3.288134  1.239018  6.472098
H    0.381239  -0.457274  3.340711
H    0.189507  1.167412  2.656610
H    -1.883854  -1.073511  2.324122
H    -2.161831  0.635652  1.977663
H    -1.708786  -0.620626  4.745050
H    -3.276754  -0.085435  4.069740
H    -1.256369  2.019671  4.106276
H    -2.617352  3.679631  6.851500
H    -3.311802  0.232940  6.369584
H    -3.878285  1.651956  7.182648
H    -1.972040  3.940463  5.269382
O    2.123491  1.211490  0.785108
H    3.094069  1.330361  0.755246
