27
Energy: -16519.0521255 eV PBE+vdW (tier 2 basis)
N    0.105370  -1.642759  0.622141
C    0.571391  -0.429648  1.315093
C    1.556400  -0.872004  2.404168
O    1.416608  -2.163571  2.742265
H    0.691145  -1.863048  -0.183731
H    -0.851978  -1.554124  0.283044
H    1.102957  0.272635  0.656111
C    -0.599914  0.345839  1.970801
C    -1.521534  -0.443620  2.935641
C    -1.364120  -0.139886  4.431561
N    -0.045889  -0.528135  4.943390
C    0.713870  0.174400  5.794081
N    2.039166  0.000810  5.761558
N    0.145661  1.037169  6.655151
H    -1.205575  0.747071  1.146209
H    -0.169804  1.221149  2.477694
H    -1.431528  -1.529287  2.777644
H    -2.568134  -0.211681  2.696528
H    -2.154734  -0.665829  4.988502
H    -1.490684  0.937754  4.608854
H    0.403381  -1.335051  4.512050
H    2.465321  -0.231275  4.851106
H    2.627312  0.354086  6.505949
H    -0.827229  0.947163  6.918614
H    0.708613  1.706103  7.164489
O    2.318404  -0.119605  2.986074
H    0.780525  -2.505659  2.030014
