27
Energy: -16518.8234529 eV PBE+vdW (tier 2 basis)
N    0.493191  -1.214713  0.535961
C    -0.202227  -0.441464  1.577562
C    0.321476  -0.924683  2.934465
O    0.707267  -2.233929  2.885805
H    1.386148  -0.789821  0.282725
H    -0.060127  -1.290107  -0.317632
H    -0.036354  0.644983  1.520955
C    -1.718844  -0.738106  1.479011
C    -2.619633  -0.203001  2.603268
C    -2.724086  -1.047024  3.881336
N    -3.268034  -2.395903  3.651677
C    -2.727483  -3.562937  4.029157
N    -3.536717  -4.631571  4.177062
N    -1.418819  -3.701604  4.256386
H    -1.851539  -1.828419  1.374685
H    -2.059050  -0.301233  0.528653
H    -3.632750  -0.069935  2.194148
H    -2.292339  0.799990  2.913252
H    -3.395813  -0.537194  4.587263
H    -1.761654  -1.145446  4.390720
H    -4.224228  -2.445228  3.311907
H    -3.161394  -5.571040  4.200453
H    -4.531478  -4.521608  4.326226
H    -0.704647  -3.081998  3.856134
H    -1.081661  -4.521461  4.745604
O    0.301747  -0.292130  3.961982
H    0.750048  -2.408419  1.892236
