27
Energy: -16518.587544 eV PBE+vdW (tier 2 basis)
N    1.403871  -1.451863  0.505281
C    0.508373  -0.675353  1.369271
C    1.152033  0.417320  2.243927
O    0.514699  1.236217  2.866391
H    1.847405  -0.835585  -0.177131
H    2.171913  -1.832486  1.062344
H    -0.189465  -0.123996  0.718186
C    -0.330492  -1.588319  2.287996
C    -1.411998  -2.409119  1.573336
C    -0.857573  -3.511960  0.671518
N    -1.955034  -4.260712  0.041218
C    -1.871221  -4.932973  -1.105943
N    -2.971820  -5.477385  -1.657660
N    -0.691764  -5.072801  -1.728545
H    -0.824580  -0.950303  3.031777
H    0.345178  -2.254947  2.849478
H    -2.047574  -1.737575  0.974914
H    -2.061491  -2.863333  2.339932
H    -0.228731  -4.203079  1.256621
H    -0.224065  -3.055962  -0.101555
H    -2.822294  -4.336424  0.565003
H    -3.892255  -5.294257  -1.280270
H    0.157759  -4.721488  -1.305129
H    -0.643989  -5.375769  -2.692747
H    -2.901879  -6.170713  -2.391041
O    2.508734  0.352531  2.248202
H    2.819257  1.074109  2.830910
