27
Energy: -16518.5891787 eV PBE+vdW (tier 2 basis)
N    0.686353  -0.689631  0.322274
C    0.255319  -0.105889  1.587252
C    1.469374  0.124963  2.484928
O    2.614724  -0.121417  2.174376
H    1.701442  -0.609816  0.237765
H    0.263894  -0.212351  -0.470302
H    -0.214073  0.885827  1.462821
C    -0.789286  -1.015824  2.284896
C    -0.216257  -2.402380  2.580336
C    -1.288195  -3.404858  2.990917
N    -0.680691  -4.733108  3.178831
C    -1.250643  -5.775403  3.781643
N    -2.538050  -5.724111  4.153312
N    -0.535909  -6.885801  4.038339
H    -1.642474  -1.105118  1.595383
H    -1.154661  -0.531234  3.200938
H    0.542172  -2.339790  3.376838
H    0.285863  -2.753176  1.662925
H    -2.067305  -3.462130  2.212493
H    -1.761945  -3.102025  3.937673
H    0.227712  -4.875916  2.747301
H    -2.934007  -6.418400  4.773616
H    0.467933  -6.902822  3.913143
H    -0.988933  -7.759234  4.274202
H    -3.137027  -4.966053  3.853900
O    1.114696  0.637909  3.690547
H    1.944167  0.790072  4.184925
