27
Energy: -16518.4056212 eV PBE+vdW (tier 2 basis)
N    -0.361331  -0.610145  -0.282704
C    -0.468279  -0.161141  1.095910
C    0.910518  0.323351  1.537519
O    1.955921  -0.164830  1.180216
H    0.542820  -1.062923  -0.430192
H    -1.093718  -1.276257  -0.523874
H    -1.142500  0.713175  1.133569
C    -0.984249  -1.253316  2.077030
C    -1.162173  -0.863131  3.552006
C    -2.044123  0.366101  3.813268
N    -3.385160  0.297889  3.207803
C    -4.463818  -0.266677  3.752387
N    -5.671982  -0.092886  3.187546
N    -4.365418  -1.001881  4.869245
H    -0.295466  -2.108404  2.021110
H    -1.944815  -1.612698  1.672078
H    -0.188392  -0.648327  4.015247
H    -1.556743  -1.740545  4.090753
H    -1.570376  1.267759  3.408341
H    -2.165814  0.543791  4.891245
H    -3.488575  0.672593  2.270509
H    -5.827029  0.620199  2.486502
H    -3.464565  -1.295196  5.223852
H    -5.184810  -1.238924  5.413687
H    -6.459534  -0.675324  3.441364
O    0.825365  1.358504  2.420831
H    1.743776  1.596253  2.660700
