27
Energy: -16518.5094572 eV PBE+vdW (tier 2 basis)
N    -0.189429  0.386555  0.072920
C    0.315156  0.050242  1.395166
C    1.835722  0.061115  1.322095
O    2.491646  0.548878  0.438741
H    0.435766  1.041754  -0.397479
H    -1.116535  0.805030  0.124266
H    0.090907  0.828747  2.161759
C    -0.300311  -1.293938  1.883790
C    -0.958254  -1.268371  3.269446
C    -0.013211  -1.018382  4.452625
N    1.106322  -1.963583  4.518598
C    1.121796  -3.126933  5.161015
N    0.019620  -3.616593  5.752057
N    2.266042  -3.832188  5.244989
H    0.442478  -2.102656  1.824152
H    -1.065531  -1.556324  1.143042
H    -1.490660  -2.221987  3.414976
H    -1.731134  -0.484565  3.303190
H    -0.553205  -1.036234  5.409740
H    0.442844  -0.022458  4.381944
H    1.878670  -1.735643  3.888021
H    0.082091  -4.353537  6.442479
H    3.146614  -3.430737  4.951245
H    2.260367  -4.812732  5.493989
H    -0.885359  -3.191393  5.603461
O    2.450451  -0.510182  2.429242
H    3.404960  -0.357646  2.278168
