27
Energy: -16519.1524598 eV PBE+vdW (tier 2 basis)
N    -0.821117  -0.423168  -0.226514
C    -0.411905  -0.156170  1.160379
C    0.957004  0.560205  1.102478
O    1.549443  0.495526  -0.069673
H    -1.480944  0.266854  -0.582293
H    -1.235780  -1.346397  -0.343176
H    -1.105896  0.533658  1.667260
C    -0.348069  -1.490228  1.942350
C    0.259096  -1.524213  3.354545
C    -0.398535  -0.644586  4.427186
N    0.067027  0.738077  4.313843
C    -0.050203  1.676940  5.239479
N    0.627631  2.834120  5.093855
N    -0.821599  1.505914  6.329815
H    0.217581  -2.206659  1.325848
H    -1.381002  -1.870052  1.990945
H    1.336008  -1.303244  3.325926
H    0.180883  -2.563910  3.700516
H    -0.126582  -1.036289  5.420031
H    -1.498033  -0.691203  4.338027
H    0.624971  0.966960  3.448111
H    0.365120  3.662308  5.611586
H    1.235527  2.959409  4.292729
H    -0.751085  2.130959  7.121881
H    -1.364199  0.662161  6.452268
O    1.457086  1.141922  2.065311
H    0.860178  0.026227  -0.644210
