27
Energy: -16518.8540448 eV PBE+vdW (tier 2 basis)
N    1.130183  -0.599183  -0.419924
C    0.498800  -0.539322  0.901642
C    1.485433  -0.125401  2.002319
O    1.904462  -0.816144  2.927976
H    2.018441  -1.100424  -0.408071
H    1.317924  0.333969  -0.783785
H    -0.223841  0.289084  0.858489
C    -0.308421  -1.817051  1.219836
C    0.264973  -3.173463  0.778748
C    1.585973  -3.617240  1.421899
N    1.589867  -3.516207  2.881417
C    1.296751  -4.470402  3.751136
N    1.481462  -4.250160  5.069396
N    0.831722  -5.672869  3.363633
H    -1.268831  -1.709026  0.698764
H    -0.551010  -1.829148  2.293006
H    0.412005  -3.170406  -0.310854
H    -0.507643  -3.932437  0.977698
H    2.420356  -2.988545  1.082327
H    1.846035  -4.641714  1.120510
H    1.709429  -2.538644  3.202963
H    1.000709  -4.810334  5.761189
H    0.884754  -6.471313  3.982782
H    0.605518  -5.851815  2.394968
H    1.905126  -3.386551  5.384051
O    1.894644  1.141918  1.833171
H    2.544179  1.348829  2.534714
