27
Energy: -16518.6888615 eV PBE+vdW (tier 2 basis)
N    0.324209  -1.675846  0.455152
C    -0.227366  -0.815448  1.507993
C    0.537394  -1.179185  2.790307
O    1.668285  -0.492971  3.029077
H    -0.163864  -1.514744  -0.426582
H    1.314705  -1.499557  0.285692
H    -0.078412  0.272756  1.328292
C    -1.738198  -1.066334  1.606384
C    -2.501501  -0.257968  2.671637
C    -2.730875  -0.944245  4.026095
N    -3.558648  -2.153831  3.929920
C    -3.159039  -3.423145  4.100167
N    -4.102044  -4.381210  4.227416
N    -1.870949  -3.751619  4.133648
H    -1.903423  -2.147437  1.719920
H    -2.149304  -0.813597  0.618142
H    -3.484298  0.025415  2.266775
H    -1.991283  0.697406  2.871872
H    -3.251738  -0.250217  4.700414
H    -1.791212  -1.214358  4.517779
H    -4.539763  -2.018555  3.708714
H    -3.857305  -5.360851  4.171882
H    -5.051635  -4.152762  4.489765
H    -1.116136  -3.099093  3.846545
H    -1.595871  -4.670231  4.457778
O    0.215548  -2.055892  3.572634
H    1.795721  0.207519  2.363584
