27
Energy: -16518.6242257 eV PBE+vdW (tier 2 basis)
N    -0.090724  -0.835851  -0.177204
C    -1.033101  -0.417540  0.869741
C    -0.515200  0.884189  1.470487
O    0.214122  1.000944  2.434874
H    0.848661  -0.972516  0.200150
H    -0.032035  -0.156358  -0.935600
H    -1.997954  -0.220824  0.377322
C    -1.178723  -1.544605  1.901615
C    -2.427201  -1.544893  2.796410
C    -2.495132  -0.496677  3.914340
N    -2.698256  0.880325  3.431869
C    -3.809530  1.359175  2.865410
N    -5.002842  0.803667  3.123495
N    -3.722408  2.410021  2.033517
H    -0.271376  -1.579620  2.524294
H    -1.190880  -2.472460  1.313886
H    -2.477104  -2.524588  3.294232
H    -3.337724  -1.484048  2.177879
H    -1.559283  -0.472802  4.485443
H    -3.283705  -0.752436  4.637041
H    -1.864057  1.457024  3.367450
H    -5.819795  1.035951  2.574061
H    -2.854874  2.572533  1.524404
H    -4.544155  2.935847  1.763605
H    -5.125837  0.173606  3.905609
O    -0.918902  1.989471  0.741851
H    -0.350034  2.730744  1.036273
