27
Energy: -16518.9636167 eV PBE+vdW (tier 2 basis)
N    -0.511828  -0.993346  2.130552
C    0.792147  -0.288632  2.146655
C    1.733566  -0.819631  1.067381
O    2.927706  -0.638937  1.053063
H    -1.155868  -0.523158  2.770048
H    -0.928504  -0.930349  1.199923
H    0.660671  0.776083  1.874856
C    1.455111  -0.298020  3.540712
C    2.087618  -1.601711  4.058002
C    1.130109  -2.769321  4.325770
N    0.548082  -3.324214  3.103363
C    0.968234  -4.397027  2.451820
N    0.281007  -4.826083  1.370341
N    2.051031  -5.103237  2.831190
H    0.708144  0.066068  4.264665
H    2.245525  0.462872  3.518772
H    2.583281  -1.364807  5.010822
H    2.886786  -1.924869  3.373791
H    0.289922  -2.440332  4.955106
H    1.631867  -3.564681  4.893278
H    -0.070145  -2.617182  2.607785
H    0.721128  -5.427481  0.686281
H    2.183261  -6.055412  2.515518
H    2.633588  -4.785110  3.593121
H    -0.553496  -4.332868  1.081396
O    1.066182  -1.487647  0.079788
H    1.730874  -1.688966  -0.609001
