15
Energy: -601001.471128 eV PBE+vdW (tier 2 basis)
N    0.073092  1.140414  2.036318
C    0.506761  0.511830  3.285276
C    1.811264  1.252131  3.663091
O    2.554501  0.935815  4.646482
H    -0.889609  1.478907  2.055003
H    0.207100  0.569475  1.198739
H    -0.221053  0.731919  4.083586
C    0.673190  -1.009443  3.167745
O    1.081428  -1.590961  4.466928
H    1.428798  -1.284440  2.418031
H    -0.291285  -1.456978  2.898083
H    0.739768  -2.504377  4.522456
O    2.090725  2.239075  2.917355
H    1.279270  2.187142  2.220292
Pb    2.698669  -0.769308  6.029306
