15
Energy: -601000.878799 eV PBE+vdW (tier 2 basis)
N    -0.240948  1.168455  -0.530934
C    -0.383837  0.756732  0.843485
C    1.077303  0.530790  1.261590
O    1.819615  1.480368  1.662495
H    -0.609527  2.085564  -0.762797
H    -0.420406  0.475191  -1.250938
H    -0.792537  1.572328  1.457727
C    -1.252284  -0.470660  1.105062
O    -0.554349  -1.636561  0.436076
H    -2.230171  -0.389535  0.619555
H    -1.352312  -0.706738  2.172008
H    -0.935512  -2.508515  0.673744
O    1.613633  -0.651759  1.096166
H    0.465072  -1.530475  0.689180
Pb    3.768345  0.292968  1.717954
