15
Energy: -601001.685552 eV PBE+vdW (tier 2 basis)
N    -0.000976  1.185080  2.102521
C    0.507168  0.485473  3.341552
C    1.838418  1.231370  3.666691
O    2.513168  0.808234  4.710981
H    -0.935014  1.598699  2.221677
H    -0.016509  0.600014  1.255600
H    -0.214121  0.656066  4.152582
C    0.669843  -1.024392  3.093125
O    1.053470  -1.673077  4.343733
H    1.440198  -1.225338  2.332913
H    -0.284669  -1.459445  2.765834
H    0.709847  -2.586238  4.344176
O    2.165716  2.157679  2.951768
H    0.726031  1.955833  1.971216
Pb    2.782430  -0.918961  5.937632
