15
Energy: -601002.033029 eV PBE+vdW (tier 2 basis)
N    0.023745  -1.021879  0.368340
C    0.096820  -0.181246  1.621197
C    1.528127  0.037280  2.073982
O    2.493122  -0.553340  1.479543
H    0.747737  -1.755375  0.349035
H    -0.927183  -1.463781  0.412362
H    -0.358519  0.791502  1.384695
C    -0.776187  -0.885513  2.692288
O    -1.934827  -1.257335  1.966746
H    -0.982636  -0.166175  3.498263
H    -0.251958  -1.761417  3.114113
H    -2.567786  -1.741021  2.525221
O    1.736713  0.812665  3.066369
H    0.106406  -0.470478  -0.495575
Pb    4.035423  0.511112  2.942417
