15
Energy: -601001.546318 eV PBE+vdW (tier 2 basis)
N    0.054225  -0.525308  -0.375258
C    -0.693283  -0.568911  0.940029
C    0.440756  -0.494819  1.987658
O    1.601383  -0.491261  1.629595
H    1.072609  -0.501471  -0.076523
H    -0.157936  0.313499  -0.930441
H    -1.328287  0.323409  1.014146
C    -1.580711  -1.841073  1.018811
O    -2.462169  -1.772941  2.111371
H    -0.946690  -2.740204  1.099530
H    -2.166590  -1.911731  0.086226
H    -0.101876  -1.349176  -0.971492
O    -0.005111  -0.435075  3.236555
H    0.765598  -0.357663  3.841526
Pb    -3.845915  -2.207275  3.550267
