15
Energy: -601001.903814 eV PBE+vdW (tier 2 basis)
N    -0.133631  -0.692389  -0.435646
C    0.060504  -1.211568  0.978522
C    0.174214  -0.071820  1.981608
O    0.343499  -0.270003  3.184629
H    -0.271817  -1.478546  -1.091181
H    -0.954632  -0.071658  -0.515702
H    -0.836581  -1.799308  1.224996
C    1.306717  -2.161004  1.030943
O    1.419031  -2.807109  2.253742
H    2.220456  -1.582853  0.795009
H    1.175205  -2.916202  0.233992
H    0.682217  -0.152591  -0.766869
O    0.089358  1.126421  1.433387
H    0.168302  1.842149  2.105026
Pb    1.212158  -2.333520  4.286545
