15
Energy: -601002.349439 eV PBE+vdW (tier 2 basis)
N    -0.707471  -0.894376  0.160416
C    0.024779  -0.150610  1.224266
C    1.433136  -0.745391  1.305456
O    1.635479  -1.959488  1.096065
H    -1.693322  -0.607021  0.138439
H    -0.327986  -0.673908  -0.768481
H    0.088181  0.929028  1.022999
C    -0.695884  -0.362094  2.564372
O    -0.843036  -1.804895  2.739990
H    -1.688055  0.111549  2.539648
H    -0.111119  0.059483  3.392747
H    -1.234526  -2.018748  3.607491
O    2.354478  0.103652  1.645471
H    3.242440  -0.314993  1.736151
Pb    -0.322201  -3.254142  0.858839
