15
Energy: -601001.119364 eV PBE+vdW (tier 2 basis)
N    -0.352879  -0.721915  -0.303642
C    -0.246276  0.091757  0.956153
C    1.197546  0.547295  1.313262
O    1.479307  0.882537  2.429969
H    -0.049264  -0.147565  -1.102298
H    0.321895  -1.500194  -0.277902
H    -0.826146  1.014815  0.792523
C    -0.836379  -0.674873  2.128645
O    -2.190740  -1.116058  1.709709
H    -0.934548  -0.022828  3.003742
H    -0.254013  -1.567563  2.395595
H    -2.746932  -1.328021  2.485913
O    1.978908  0.522566  0.224247
H    2.875672  0.853647  0.452028
Pb    -2.644150  -1.552599  -0.520945
