19
Energy: -240145.360370 eV PBE+vdW (tier 2 basis)
N    0.85752  -1.37435  0.75830
C    0.18463  -0.19720  1.25084
C    1.07001  0.79416  2.01100
O    2.15737  0.52885  2.54644
H    1.02602  -2.06831  1.48383
H    1.68458  -1.18806  0.19763
H    -0.18150  0.37483  0.38352
C    -1.07655  -0.59643  2.09171
C    -0.97138  -0.58717  3.62901
C    0.28019  -1.21276  4.20352
O    0.86702  -0.64094  5.18708
O    0.81721  -2.23014  3.63193
H    -1.34348  -1.59686  1.72929
H    -1.90430  0.06929  1.82016
H    -1.83575  -1.13541  4.03590
H    -1.04425  0.42935  4.03628
O    0.56485  2.02300  2.03524
H    1.16379  2.61319  2.53692
Ba    3.04103  -1.26407  4.19940
