19
Energy: -240146.183885 eV PBE+vdW (tier 2 basis)
N    0.41653  -0.21188  -0.00096
C    0.16017  -0.06616  1.44268
C    1.54504  -0.10313  2.12183
O    1.71839  -0.16093  3.35038
H    0.20874  -1.15287  -0.33621
H    -0.11359  0.45067  -0.56316
H    -0.19431  0.96290  1.61999
C    -0.89664  -1.00642  2.05758
C    -0.64262  -2.52721  1.94637
C    0.51946  -2.94092  2.82282
O    0.34100  -3.03239  4.08628
O    1.68645  -3.05066  2.30578
H    -1.85205  -0.77697  1.56622
H    -1.02204  -0.74185  3.11639
H    -0.44779  -2.84021  0.91173
H    -1.54748  -3.04417  2.28932
O    2.54450  -0.04173  1.28192
H    2.04462  -0.05256  0.37602
Ba    2.66196  -2.24814  4.47624
