19
Energy: -240145.995108 eV PBE+vdW (tier 2 basis)
N    0.03289  -0.22364  -0.06220
C    0.00633  0.04850  1.43062
C    1.36894  -0.51839  1.90721
O    1.93011  -1.34486  1.12474
H    0.81735  -0.96012  -0.09123
H    0.30745  0.59107  -0.61987
H    -0.02505  1.13048  1.60231
C    -1.23500  -0.65467  2.03166
C    -1.22789  -0.87771  3.54989
C    -0.24466  -1.96428  3.97263
O    0.32660  -1.89932  5.10413
O    0.08460  -2.85025  3.10447
H    -1.32751  -1.64483  1.55905
H    -2.11716  -0.05910  1.75354
H    -2.23660  -1.19215  3.85751
H    -0.99822  0.03472  4.11336
O    1.78224  -0.17554  3.04525
H    -0.85414  -0.59285  -0.41987
Ba    2.45471  -2.52407  3.85779
