19
Energy: -240145.788991 eV PBE+vdW (tier 2 basis)
N    0.12301  -0.15652  -0.17286
C    -0.02164  -0.15721  1.31266
C    1.32660  -0.06288  2.01843
O    1.47439  -0.01405  3.20733
H    0.20233  0.81228  -0.49153
H    -0.75310  -0.50976  -0.56713
H    -0.54957  0.75657  1.63366
C    -0.88413  -1.33912  1.83407
C    -0.22653  -2.73009  1.99729
C    0.67922  -3.05187  0.83303
O    0.19974  -3.15959  -0.34721
O    1.94764  -3.01870  1.02747
H    -1.75018  -1.41234  1.16029
H    -1.28031  -1.04252  2.81276
H    -1.02750  -3.47774  2.06547
H    0.36293  -2.77077  2.91961
O    2.41019  0.00738  1.13942
H    3.19008  0.09696  1.72487
Ba    2.19299  -1.84259  -1.11552
