19
Energy: -240145.035171 eV PBE+vdW (tier 2 basis)
N    0.64595  -0.22410  0.00557
C    -0.33636  -0.36593  1.07603
C    0.27830  0.34532  2.27401
O    1.28743  0.05486  2.84797
H    0.25392  -0.51809  -0.88797
H    1.47829  -0.78600  0.18885
H    -1.22843  0.19099  0.76375
C    -0.76352  -1.81610  1.42476
C    -1.59845  -2.00040  2.71138
C    -2.61199  -0.90723  2.93963
O    -2.72807  -0.38180  4.10354
O    -3.25849  -0.40990  1.94324
H    0.14212  -2.43110  1.51978
H    -1.31816  -2.18864  0.55318
H    -0.96177  -2.05228  3.60292
H    -2.13855  -2.95810  2.65666
O    -0.46055  1.48909  2.69436
H    0.11662  1.88052  3.38380
Ba    -3.23685  1.77198  3.05379
