19
Energy: -240146.116792 eV PBE+vdW (tier 2 basis)
N    0.90237  -0.91235  0.24840
C    0.34776  -0.20382  1.46027
C    1.44579  -0.25069  2.54522
O    1.11550  -0.02997  3.74381
H    1.91293  -0.72048  0.18830
H    0.78599  -1.98462  0.46935
H    0.18063  0.84933  1.19302
C    -0.98332  -0.85531  1.88472
C    -0.88447  -2.14557  2.73956
C    0.38232  -2.96736  2.49433
O    1.07407  -3.29391  3.53394
O    0.74054  -3.23416  1.32060
H    -1.56724  -1.03868  0.97092
H    -1.55018  -0.11106  2.45574
H    -1.74780  -2.78815  2.51524
H    -0.93793  -1.89433  3.80285
O    2.61450  -0.61633  2.18745
H    0.42505  -0.64738  -0.61697
Ba    2.77648  -1.89117  4.45825
