19
Energy: -240146.221807 eV PBE+vdW (tier 2 basis)
N    0.24315  0.14841  0.24888
C    -0.62099  -0.23954  1.42230
C    -0.03673  0.68332  2.55450
O    0.95575  1.36413  2.19797
H    0.90375  0.87190  0.83530
H    -0.26737  0.61338  -0.50464
H    -1.65366  0.07016  1.21444
C    -0.56161  -1.75698  1.71557
C    -1.90789  -2.38991  2.12393
C    -2.40146  -1.81333  3.43566
O    -1.81963  -2.17171  4.51591
O    -3.29016  -0.89569  3.41755
H    0.18983  -1.96252  2.49039
H    -0.22477  -2.27518  0.80505
H    -1.75379  -3.46939  2.24773
H    -2.66337  -2.22785  1.34485
O    -0.58628  0.68198  3.68990
H    0.77156  -0.63641  -0.14047
Ba    -2.19131  0.10823  5.45119
