19
Energy: -240145.050755 eV PBE+vdW (tier 2 basis)
N    0.14696  -0.64864  0.21827
C    -0.09533  -0.31391  1.59779
C    1.09794  -0.19619  2.57037
O    1.11205  0.43784  3.58657
H    0.74897  0.01480  -0.26132
H    0.47452  -1.59950  0.06128
H    -0.46224  0.72508  1.62578
C    -1.23653  -1.16202  2.23093
C    -1.25505  -2.65980  1.85327
C    0.07924  -3.31640  2.06937
O    0.55871  -3.43742  3.25193
O    0.78840  -3.65246  1.04495
H    -2.18588  -0.73377  1.88721
H    -1.20401  -1.04475  3.32140
H    -1.54659  -2.79188  0.80563
H    -2.00084  -3.15934  2.48671
O    2.32714  -0.82710  2.15538
H    2.97598  -0.35396  2.71751
Ba    2.84256  -3.55356  2.35597
