19
Energy: -240145.003445 eV PBE+vdW (tier 2 basis)
N    -0.57890  0.33710  0.08347
C    -0.16669  0.14912  1.46851
C    1.35348  0.01083  1.52119
O    2.09167  0.15610  0.57111
H    0.22480  0.61779  -0.48115
H    -1.30117  1.04802  -0.00122
H    -0.40004  1.01862  2.11049
C    -0.88324  -1.07660  2.08685
C    -0.59340  -2.33655  1.27018
C    -1.51729  -3.48402  1.49797
O    -1.08924  -4.69520  1.34494
O    -2.75697  -3.29311  1.80910
H    -1.96202  -0.87260  2.07244
H    -0.58277  -1.20135  3.13536
H    0.43658  -2.69863  1.38759
H    -0.70714  -2.05149  0.20310
O    1.79281  -0.28831  2.77036
H    2.76853  -0.31873  2.72057
Ba    -3.25670  -5.65800  1.76225
