19
Energy: -240145.776791 eV PBE+vdW (tier 2 basis)
N    1.23678  -0.95662  0.60161
C    0.05562  -0.24242  1.09520
C    0.55586  1.04255  1.74717
O    0.90986  1.19208  2.92993
H    1.88830  -1.20277  1.34663
H    1.73405  -0.45143  -0.13019
H    -0.53480  0.06062  0.21909
C    -0.77672  -1.18785  1.96678
C    -2.12750  -0.64455  2.48386
C    -1.91620  0.24331  3.68462
O    -1.45786  -0.28835  4.76185
O    -2.04684  1.51306  3.58876
H    -0.17940  -1.54482  2.81905
H    -0.96225  -2.06412  1.33252
H    -2.74045  -1.49978  2.79745
H    -2.67029  -0.09692  1.70370
O    0.70179  2.02293  0.85268
H    1.15376  2.78185  1.27240
Ba    -0.18271  1.74024  5.22188
