19
Energy: -240144.991135 eV PBE+vdW (tier 2 basis)
N    0.27973  -0.22124  -0.28463
C    0.05877  -0.19942  1.15452
C    1.15528  0.40719  2.04521
O    1.03006  0.58860  3.23664
H    0.20442  0.71325  -0.68327
H    1.21850  -0.55615  -0.50361
H    -0.83049  0.42148  1.34985
C    -0.23689  -1.62493  1.67038
C    -1.48555  -2.18995  0.99339
C    -1.72059  -3.64896  1.20475
O    -0.73346  -4.46995  1.34703
O    -2.92829  -4.11024  1.22468
H    -0.35823  -1.59310  2.76092
H    0.62678  -2.27143  1.45511
H    -1.37269  -2.03621  -0.09804
H    -2.39845  -1.65169  1.28197
O    2.28843  0.70293  1.35691
H    2.91683  1.07273  2.00851
Ba    -2.19877  -6.37818  1.59560
