19
Energy: -240145.798171 eV PBE+vdW (tier 2 basis)
N    -0.58366  0.31927  0.43218
C    -0.01959  -0.03909  1.70852
C    1.52073  -0.06095  1.78182
O    2.26778  -0.26306  0.82003
H    -0.33587  1.26297  0.14301
H    -0.33659  -0.33442  -0.31098
H    -0.33151  0.73273  2.43409
C    -0.59792  -1.39146  2.23854
C    -0.77244  -2.51062  1.18997
C    0.50493  -2.82403  0.44633
O    0.60544  -2.48934  -0.78921
O    1.50489  -3.31242  1.07952
H    -1.59111  -1.17007  2.64880
H    0.01959  -1.76138  3.06968
H    -1.54987  -2.24147  0.46674
H    -1.09878  -3.41510  1.72153
O    2.09517  0.15158  2.96692
H    1.42597  0.33177  3.65432
Ba    3.06583  -2.26292  -0.54681
