19
Energy: -240145.753753 eV PBE+vdW (tier 2 basis)
N    0.79093  -1.08312  0.47123
C    0.12487  -0.44436  1.64016
C    1.07814  -0.27236  2.82075
O    0.78435  0.20110  3.88028
H    1.27235  -0.36094  -0.06934
H    0.07295  -1.45689  -0.15413
H    -0.14365  0.59896  1.39938
C    -1.19802  -1.13222  2.07619
C    -1.32383  -2.65819  1.84788
C    -0.01136  -3.38891  1.99541
O    0.76298  -3.07461  2.96658
O    0.38675  -4.17246  1.06570
H    -2.02426  -0.64761  1.54101
H    -1.33309  -0.89006  3.13655
H    -1.73446  -2.89185  0.85831
H    -2.03707  -3.05700  2.58341
O    2.41325  -0.61139  2.52752
H    2.90683  -0.31834  3.32059
Ba    2.62835  -3.14776  1.32452
