19
Energy: -240144.728833 eV PBE+vdW (tier 2 basis)
N    -0.69302  -0.14723  0.07775
C    0.04580  -0.00934  1.33218
C    1.55303  -0.15621  1.18103
O    2.04002  -0.80403  0.18053
H    -2.24649  -0.95413  0.43348
H    -0.26915  -0.86795  -0.51057
H    -0.13992  0.99284  1.74498
C    -0.41667  -1.04337  2.39467
C    -1.89418  -0.90253  2.82007
C    -2.90020  -1.77508  2.05781
O    -2.94536  -1.61041  0.71961
O    -3.62109  -2.56371  2.62494
H    0.21788  -0.90975  3.28121
H    -0.22472  -2.05923  2.01355
H    -2.21205  0.15001  2.74443
H    -1.99340  -1.18895  3.87240
O    2.33675  0.31373  2.08765
H    -0.69085  0.72037  -0.45778
Ba    4.31224  -0.66843  1.07333
