19
Energy: -240145.822244 eV PBE+vdW (tier 2 basis)
N    0.03097  -1.72904  2.43224
C    -0.33800  -0.61738  1.52479
C    0.74778  0.45294  1.62843
O    1.74996  0.36225  2.34232
H    -0.79835  -2.28694  2.64317
H    0.67777  -2.35848  1.95304
H    -0.29762  -0.93448  0.46781
C    -1.78188  -0.07636  1.75296
C    -2.35847  -0.18622  3.18296
C    -1.32317  0.08898  4.25147
O    -0.50970  1.05984  4.06843
O    -1.16118  -0.74129  5.20809
H    -2.45258  -0.62318  1.07801
H    -1.79397  0.96700  1.41979
H    -2.80032  -1.17173  3.37445
H    -3.17519  0.54367  3.27810
O    0.54735  1.46389  0.79301
H    1.27982  2.10521  0.89055
Ba    1.29875  -0.52765  4.80539
