19
Energy: -240146.179014 eV PBE+vdW (tier 2 basis)
N    0.46635  -1.54096  2.71489
C    -0.05464  -0.68433  1.62394
C    0.75514  0.61150  1.61795
O    1.68064  0.85899  2.39532
H    1.27713  -2.06397  2.37825
H    -0.23489  -2.24094  2.96360
H    0.14948  -1.12958  0.63432
C    -1.59700  -0.46375  1.68322
C    -2.26199  -0.51077  3.07750
C    -1.41707  0.14506  4.14783
O    -0.82741  1.24444  3.86244
O    -1.16229  -0.48336  5.22990
H    -2.06784  -1.23516  1.06066
H    -1.80720  0.49490  1.19687
H    -2.48563  -1.53718  3.39332
H    -3.22772  0.01070  3.01233
O    0.41671  1.41835  0.62057
H    0.97781  2.21910  0.65681
Ba    1.21442  0.24195  4.93828
