19
Energy: -240145.644996 eV PBE+vdW (tier 2 basis)
N    -0.03085  0.39348  0.26511
C    -0.26733  -0.12516  1.60716
C    0.98209  0.14312  2.43560
O    0.98653  0.74214  3.52241
H    -0.91169  0.57369  -0.21326
H    0.51245  -0.25354  -0.30675
H    -1.04615  0.49446  2.06643
C    -0.73247  -1.60915  1.68764
C    -0.67375  -2.30652  3.06308
C    -1.04314  -1.43240  4.24144
O    -0.36088  -1.53026  5.32217
O    -1.93244  -0.51690  4.11365
H    -0.12293  -2.19768  0.98701
H    -1.75963  -1.61592  1.29943
H    0.32439  -2.71531  3.26563
H    -1.35720  -3.16957  3.05683
O    2.09577  -0.33333  1.89852
H    2.85784  -0.10414  2.46862
Ba    -0.55883  0.90489  5.62122
