19
Energy: -240146.411894 eV PBE+vdW (tier 2 basis)
N    0.41618  0.06034  0.34146
C    0.14179  -0.10196  1.81749
C    1.49142  -0.59589  2.40967
O    1.45278  -1.34204  3.42724
H    1.28529  0.60211  0.23364
H    0.64240  -0.94473  0.00813
H    -0.07881  0.89040  2.23576
C    -1.03943  -1.04955  2.07958
C    -1.09367  -2.37068  1.25939
C    0.26749  -3.03098  1.13167
O    1.10464  -2.48152  0.30395
O    0.62332  -3.97992  1.87766
H    -1.98217  -0.50931  1.91638
H    -0.99142  -1.28692  3.14923
H    -1.47765  -2.17721  0.24728
H    -1.79263  -3.05472  1.75191
O    2.54474  -0.33821  1.74861
H    -0.35690  0.48851  -0.17572
Ba    2.97963  -2.96771  2.12968
