19
Energy: -240144.991541 eV PBE+vdW (tier 2 basis)
N    -0.10488  -0.75914  0.03794
C    0.02014  -0.06812  1.32317
C    1.46046  0.36442  1.60008
O    1.96742  0.42110  2.69976
H    0.50175  -0.33711  -0.66350
H    -1.06121  -0.69519  -0.30928
H    -0.54386  0.88805  1.35356
C    -0.51957  -0.94639  2.46418
C    0.20659  -2.29031  2.53310
C    -0.42533  -3.32255  3.40451
O    0.29819  -4.28068  3.88754
O    -1.68797  -3.29499  3.67641
H    -1.59202  -1.11171  2.29229
H    -0.42077  -0.40341  3.41293
H    1.25336  -2.18308  2.84710
H    0.24076  -2.71374  1.50997
O    2.10397  0.73636  0.46394
H    2.99410  1.04009  0.73010
Ba    -1.54534  -5.26877  5.07074
