19
Energy: -240146.227240 eV PBE+vdW (tier 2 basis)
N    0.34567  -0.36934  0.19286
C    0.00739  -0.23704  1.65629
C    1.42294  -0.41230  2.31874
O    1.53005  -0.30048  3.57086
H    0.17112  0.47796  -0.35143
H    -0.12309  -1.15869  -0.25903
H    -0.33844  0.78853  1.84220
C    -1.06413  -1.25622  2.10844
C    -2.11095  -0.69671  3.09409
C    -1.45764  -0.29333  4.40080
O    -1.16657  0.93514  4.59810
O    -1.09616  -1.21348  5.21102
H    -0.58184  -2.13959  2.54936
H    -1.61077  -1.60669  1.22003
H    -2.84815  -1.48439  3.29449
H    -2.62659  0.16889  2.65938
O    2.34551  -0.64757  1.50070
H    1.45904  -0.56331  0.35585
Ba    0.86362  0.17160  5.88224
