14
Energy: -162928.206477 eV PBE+vdW (tier 2 basis)
N    0.342554  0.861474  0.784845
C    0.558299  0.130943  2.076051
C    1.949653  -0.538195  2.117138
O    2.598390  -0.840383  1.088820
H    -0.648520  0.820003  0.516277
H    0.584096  1.857637  0.868716
H    0.524436  0.877787  2.887211
H    -0.511314  -1.688406  1.468183
C    -0.518997  -0.944616  2.278822
H    -0.364478  -1.485300  3.221050
H    -1.510088  -0.475279  2.331871
H    1.955127  -0.619891  4.048148
O    2.470192  -0.877536  3.253818
Cd    1.708648  -0.120238  -0.745951
