36
Energy: -611335.10467 eV PBE+vdW (tier 2 basis)
C    0.211335  -0.790777  0.564027
C    -0.065671  -0.197339  1.910797
O    0.907636  0.184449  2.626829
H    -0.683552  -1.170777  0.060040
H    0.946850  -1.598472  0.664801
H    0.671602  -0.017135  -0.066785
N    -1.354208  -0.097513  2.291968
C    -1.890654  0.599819  3.472744
C    -0.902024  0.445476  4.628953
O    -0.366840  1.554200  5.040786
H    -2.042998  -0.421357  1.617745
H    -1.891630  1.679289  3.255959
C    -3.343086  0.177892  3.767489
C    -4.076123  1.128213  4.727542
C    -3.717934  1.052523  6.215605
N    -4.155384  -0.208808  6.841126
C    -3.483696  -0.934710  7.749738
N    -4.167454  -1.695894  8.617045
N    -2.144211  -0.929349  7.793606
H    -3.395293  -0.858554  4.128410
H    -3.886643  0.195235  2.810370
H    -5.157672  0.957028  4.618992
H    -3.918971  2.170190  4.411232
H    -4.214996  1.882387  6.739873
H    -2.645137  1.180429  6.395324
H    -5.152943  -0.399484  6.784653
H    -3.716214  -2.438588  9.138407
H    -5.148051  -1.528458  8.810782
H    -1.663796  -1.305857  8.601701
N    -0.419308  -0.684524  5.132004
C    -0.764693  -2.026237  4.658817
H    -1.572689  -0.634220  7.000519
H    -0.155748  -2.319139  3.791161
H    -1.819180  -2.127580  4.374782
H    -0.556553  -2.743215  5.460991
Pb    1.677061  0.538889  4.816344
