36
Energy: -611335.463006 eV PBE+vdW (tier 2 basis)
C    0.303294  -0.345227  0.332750
C    0.100161  -0.057628  1.784995
O    1.070366  0.346241  2.488274
H    -0.617690  -0.626583  -0.188562
H    1.039441  -1.153946  0.227575
H    0.736750  0.541161  -0.149031
N    -1.132958  -0.229426  2.302985
C    -1.480312  0.117964  3.681555
C    -1.094040  -1.021144  4.648386
O    0.023064  -0.925095  5.248929
H    -1.864069  -0.559423  1.678307
H    -0.763955  0.892927  3.955651
C    -2.885500  0.741826  3.806560
C    -2.925814  2.213932  3.345230
C    -2.536490  3.269583  4.405704
N    -1.304064  2.980448  5.153237
C    -0.052547  2.919463  4.651250
N    0.171309  3.361188  3.394182
N    0.970997  2.354990  5.314650
H    -3.215597  0.659102  4.853302
H    -3.612587  0.161579  3.222389
H    -3.949562  2.461624  3.033126
H    -2.313243  2.326352  2.437777
H    -3.327356  3.348717  5.161176
H    -2.472491  4.265742  3.942208
H    -1.420984  2.593006  6.082772
H    1.134252  3.555696  3.143579
H    -0.526870  3.919206  2.916571
H    0.766956  2.269993  6.314375
N    -1.856228  -2.084362  4.867264
C    -3.158915  -2.438009  4.299171
H    -1.456879  -2.744209  5.535831
H    -3.212898  -2.178717  3.237284
H    -3.979223  -1.954274  4.843722
H    -3.278897  -3.522251  4.382772
Pb    1.957071  0.316756  4.654772
