36
Energy: -611333.632023 eV PBE+vdW (tier 2 basis)
C    -0.019562  1.591446  0.195959
C    0.213200  1.010408  1.538540
O    1.400393  0.974195  2.033868
H    0.423171  0.882884  -0.526951
H    0.533731  2.530828  0.077902
H    -1.080555  1.713114  -0.062429
N    -0.793586  0.483676  2.267595
C    -2.067811  1.163133  2.475236
C    -1.791973  2.373691  3.383513
O    -0.682097  2.490318  4.039677
H    -0.496131  -0.130864  3.029303
H    -2.408608  1.556097  1.493371
C    -3.118738  0.156305  2.995782
C    -4.554441  0.647291  3.246966
C    -5.362333  1.179743  2.052396
N    -4.992050  2.541079  1.612919
C    -4.203473  2.755184  0.463891
N    -4.046027  4.078386  0.136358
N    -3.510270  1.858233  -0.166710
H    -2.746303  -0.290860  3.932202
H    -3.138593  -0.655111  2.252193
H    -4.581492  1.384116  4.064034
H    -5.102701  -0.222798  3.636828
H    -6.416775  1.219613  2.350801
H    -5.321293  0.478526  1.204752
H    -5.764568  3.199158  1.703975
H    -3.687113  4.241357  -0.799106
H    -4.729531  4.758934  0.448861
H    -3.812771  0.908949  0.063172
N    -2.718506  3.300045  3.455032
C    -2.649799  4.525206  4.248148
H    -3.569518  3.144805  2.875396
H    -3.623820  4.696667  4.719100
H    -2.415190  5.378493  3.597871
H    -1.884147  4.430946  5.021375
Pb    1.491070  1.894939  4.104905
