36
Energy: -611335.599228 eV PBE+vdW (tier 2 basis)
C    1.186779  1.928788  1.758908
C    0.654952  0.868953  2.671672
O    1.399784  -0.096361  3.016368
H    0.465500  2.720935  1.532851
H    1.497517  1.451110  0.818907
H    2.088331  2.372270  2.201205
N    -0.624178  0.980316  3.076057
C    -1.468463  -0.015856  3.767346
C    -1.183322  -0.034922  5.275791
O    -0.027022  -0.226458  5.756557
H    -1.115942  1.800594  2.733203
H    -2.487788  0.367791  3.641214
C    -1.415162  -1.389195  3.051522
C    -2.299111  -2.515017  3.618468
C    -1.597705  -3.487218  4.583481
N    -0.436866  -4.144137  3.977324
C    0.843798  -3.727399  4.088647
N    1.727902  -4.086693  3.132584
N    1.269912  -2.958894  5.097068
H    -0.374797  -1.724539  2.979291
H    -1.727431  -1.176048  2.020380
H    -2.686392  -3.098360  2.771491
H    -3.194309  -2.120667  4.122165
H    -2.299931  -4.269284  4.897934
H    -1.280295  -2.978910  5.501938
H    -0.630112  -4.905258  3.331992
H    2.706429  -4.167126  3.384469
H    1.432060  -4.582465  2.299472
H    0.629090  -3.009352  5.890950
N    -2.198054  0.155703  6.117358
C    -3.600698  0.484954  5.834074
H    -1.924585  0.133879  7.099801
H    -3.687848  1.440159  5.301421
H    -4.117707  0.586013  6.792352
H    -4.098090  -0.308530  5.264882
Pb    2.140754  -0.809777  5.090858
