36
Energy: -611333.536555 eV PBE+vdW (tier 2 basis)
C    0.472349  1.073015  1.745768
C    -0.064797  0.363999  2.930781
O    0.727039  -0.040861  3.860943
H    1.172035  1.862441  2.047695
H    -0.316573  1.461336  1.091372
H    1.066924  0.337520  1.177438
N    -1.383257  0.125662  3.063066
C    -2.410701  1.145312  2.829386
C    -2.157216  2.259289  3.851979
O    -1.484812  2.029831  4.936690
H    -1.622340  -0.564165  3.779656
H    -2.299409  1.556075  1.794238
C    -3.807488  0.507043  3.011713
C    -4.161009  -0.552799  1.946002
C    -5.006822  -0.023569  0.769201
N    -4.447731  1.156122  0.113880
C    -3.226935  1.165587  -0.538592
N    -3.064776  0.194527  -1.484329
N    -2.344264  2.060963  -0.171646
H    -3.845334  0.059511  4.018891
H    -4.560195  1.308175  3.026594
H    -4.724136  -1.365130  2.426058
H    -3.241634  -1.014881  1.553253
H    -6.010934  0.251580  1.118331
H    -5.149763  -0.832165  0.041588
H    -4.610544  2.032610  0.596413
H    -2.205367  0.179122  -2.020147
H    -3.884118  -0.150772  -1.973937
H    -1.590696  2.155743  -0.859206
N    -2.627270  3.474021  3.659532
C    -3.370688  3.989700  2.503730
H    -2.451352  4.127466  4.424404
H    -3.062102  3.471097  1.584319
H    -3.134797  5.053596  2.401102
H    -4.451444  3.889481  2.671078
Pb    0.146895  0.800912  5.886278
