36
Energy: -611333.602178 eV PBE+vdW (tier 2 basis)
C    1.768246  1.378738  0.687123
C    0.627493  2.250021  1.095752
O    0.703275  3.507072  0.912400
H    1.967044  1.540675  -0.381756
H    1.587431  0.313364  0.863769
H    2.673971  1.688739  1.225808
N    -0.462535  1.675944  1.623118
C    -1.742444  2.336620  1.932216
C    -1.638423  3.007902  3.318846
O    -1.012134  4.113696  3.438562
H    -0.432017  0.666263  1.745810
H    -1.857969  3.166225  1.216140
C    -2.924604  1.369988  1.754629
C    -3.321046  1.029558  0.306182
C    -2.379644  0.080679  -0.470851
N    -2.987932  -0.505584  -1.643391
C    -3.901292  -1.546746  -1.570686
N    -4.515016  -1.872927  -2.746515
N    -4.239028  -2.214594  -0.503379
H    -3.799892  1.840959  2.225488
H    -2.733628  0.435217  2.313356
H    -3.470317  1.957203  -0.267601
H    -4.307904  0.548487  0.357439
H    -2.041415  -0.739013  0.186812
H    -1.472728  0.603521  -0.806143
H    -2.977200  0.049203  -2.492586
H    -5.103674  -2.698454  -2.714961
H    -4.107467  -1.638124  -3.643244
H    -3.731028  -1.922046  0.333326
N    -2.188497  2.425202  4.367071
C    -2.159610  2.928917  5.742578
H    -2.697550  1.558886  4.204849
H    -3.186679  3.015825  6.115632
H    -1.675050  3.906834  5.760698
H    -1.605084  2.227832  6.378308
Pb    0.231140  5.417011  2.044232
