36
Energy: -611335.106947 eV PBE+vdW (tier 2 basis)
C    0.638819  -2.638678  2.352443
C    0.254270  -1.211420  2.614422
O    0.638817  -0.383462  1.644593
H    0.457433  -2.874116  1.296791
H    0.071815  -3.338127  2.971869
H    1.714826  -2.778313  2.530164
N    -0.416474  -0.891961  3.683281
C    -0.898559  0.485098  3.841349
C    0.205736  1.310488  4.508071
O    1.180123  1.765631  3.810198
H    -0.606995  -2.411474  4.988542
H    -1.005310  0.958726  2.846902
C    -2.315366  0.549476  4.496539
C    -2.843673  -0.737284  5.137592
C    -2.188764  -1.093098  6.480755
N    -2.390936  -2.483546  6.882358
C    -1.590614  -3.486254  6.489934
N    -1.743618  -4.706797  7.026931
N    -0.630668  -3.259779  5.586403
H    -3.016195  0.822149  3.697644
H    -2.374140  1.392275  5.203723
H    -2.711838  -1.567286  4.431011
H    -3.926790  -0.629117  5.286319
H    -2.586880  -0.462571  7.287494
H    -1.100777  -0.931689  6.452890
H    -3.229504  -2.719974  7.402266
H    -1.301281  -5.521137  6.619416
H    -2.316634  -4.856667  7.848447
H    0.092851  -3.954329  5.447763
N    0.197147  1.549506  5.807621
C    1.241258  2.296080  6.515916
H    -0.612265  1.243095  6.336517
H    2.207682  1.789253  6.413945
H    0.969449  2.352416  7.572913
H    1.326044  3.310519  6.108547
Pb    1.566774  1.551583  1.584308
