36
Energy: -611335.658692 eV PBE+vdW (tier 2 basis)
C    1.680393  0.927237  1.318363
C    0.837705  1.089349  2.544032
O    0.996669  2.089800  3.306491
H    1.533484  1.809844  0.680027
H    1.452930  0.026883  0.738030
H    2.739403  0.917814  1.607584
N    -0.081617  0.148103  2.798223
C    -1.173034  0.123973  3.785565
C    -0.916547  0.902607  5.083595
O    0.164256  0.824796  5.752404
H    -0.158754  -0.587172  2.099505
H    -2.039464  0.602330  3.298406
C    -1.602809  -1.349262  4.050273
C    -0.755121  -2.297976  4.918698
C    0.694000  -2.594496  4.507235
N    1.554717  -1.492792  4.932278
C    2.783875  -1.172199  4.508248
N    3.502719  -2.085512  3.821014
N    3.243914  0.068350  4.756575
H    -1.759181  -1.801779  3.056886
H    -2.605684  -1.304007  4.497734
H    -1.294929  -3.254786  4.923268
H    -0.759753  -1.968744  5.969850
H    0.782604  -2.747327  3.418835
H    1.007055  -3.531314  4.993737
H    1.099504  -0.782776  5.503677
H    4.432215  -1.857586  3.489080
H    3.287488  -3.073951  3.893391
H    4.256640  0.143858  4.654761
N    -1.957170  1.585782  5.539435
C    -2.009483  2.287080  6.821951
H    -2.791029  1.627480  4.957734
H    -2.994388  2.127793  7.273476
H    -1.859673  3.364439  6.672394
H    -1.235378  1.891777  7.484154
Pb    2.168602  2.048165  5.301005
