36
Energy: -611333.293475 eV PBE+vdW (tier 2 basis)
C    -1.833444  -0.226071  4.969091
C    -2.315109  -1.474265  5.618163
O    -1.882314  -1.743367  6.803361
H    -2.476892  0.122451  4.160837
H    -0.805840  -0.353479  4.596307
H    -1.778750  0.541105  5.754688
N    -3.229779  -2.311258  5.085331
C    -3.182469  -3.021832  3.777016
C    -2.365028  -4.296014  4.087304
O    -1.344503  -4.222467  4.899177
H    -3.627027  -2.914229  5.809028
H    -4.219487  -3.314788  3.545208
C    -2.625766  -2.174303  2.614927
C    -2.804154  -2.712181  1.182203
C    -4.233257  -2.633119  0.564631
N    -4.871187  -3.945236  0.356845
C    -5.144391  -4.719262  1.469307
N    -5.944108  -4.120829  2.424135
N    -4.647626  -5.898117  1.734376
H    -1.554328  -1.990003  2.778981
H    -3.130016  -1.199375  2.667289
H    -2.423665  -3.741473  1.098791
H    -2.130613  -2.110321  0.557452
H    -4.183247  -2.154765  -0.419586
H    -4.892653  -1.999983  1.172991
H    -4.400599  -4.482077  -0.369500
H    -6.364978  -4.792400  3.061367
H    -6.615173  -3.444449  2.069070
H    -4.061876  -6.234352  0.964614
N    -2.708534  -5.444310  3.572297
C    -1.974008  -6.686917  3.808897
H    -3.565762  -5.554277  2.908041
H    -2.449975  -7.473240  3.216437
H    -2.021671  -6.968340  4.869313
H    -0.922761  -6.584316  3.514551
Pb    -0.648742  -3.635066  6.929470
