36
Energy: -611335.767381 eV PBE+vdW (tier 2 basis)
C    0.449814  -0.650339  -0.085492
C    0.045872  -0.261230  1.299138
O    0.919894  0.085762  2.143178
H    0.990840  0.189067  -0.543428
H    -0.396487  -0.923514  -0.724448
H    1.153494  -1.491558  -0.033242
N    -1.266282  -0.272099  1.612313
C    -1.765816  0.241058  2.889684
C    -1.643429  -0.854340  3.970361
O    -0.648779  -0.852424  4.763844
H    -1.929267  -0.548993  0.892928
H    -1.040177  1.007204  3.181854
C    -3.151817  0.922008  2.778418
C    -3.226284  2.304920  3.452219
C    -2.960063  2.370215  4.966234
N    -1.571610  2.083403  5.354088
C    -0.479258  2.824752  5.061594
N    -0.645111  4.132567  4.779806
N    0.719745  2.229025  5.033066
H    -3.947122  0.276421  3.178713
H    -3.386222  1.063452  1.713813
H    -4.237565  2.702330  3.285554
H    -2.546520  2.997135  2.931953
H    -3.583884  1.648753  5.509678
H    -3.264463  3.355966  5.346894
H    -1.372623  1.187235  5.782849
H    -1.467942  4.635190  5.093524
H    0.144451  4.697758  4.491545
H    1.485259  2.904596  5.079700
N    -2.571719  -1.795709  4.041536
C    -2.560805  -2.936764  4.960103
H    -3.362917  -1.725990  3.405989
H    -3.409416  -2.865748  5.651385
H    -1.626522  -2.933876  5.525125
H    -2.644926  -3.866554  4.385524
Pb    1.474361  0.092560  4.438628
