36
Energy: -611335.181933 eV PBE+vdW (tier 2 basis)
C    0.705068  -1.650775  0.401201
C    0.317770  -0.631707  1.432487
O    1.165758  0.381327  1.536523
H    0.593488  -1.225763  -0.606716
H    0.102015  -2.558955  0.503008
H    1.762571  -1.919473  0.513383
N    -0.788177  -0.781485  2.106900
C    -1.134218  0.241877  3.086410
C    -0.172145  0.192334  4.284208
O    0.633441  1.178364  4.479437
H    -1.841512  -2.851255  -0.609070
H    -0.967318  1.251952  2.658530
C    -2.615408  0.201663  3.508896
C    -3.601948  0.472993  2.350800
C    -4.287851  -0.760154  1.759934
N    -3.340309  -1.644690  1.076217
C    -3.698960  -2.613436  0.234842
N    -4.985494  -2.961221  0.083984
N    -2.758352  -3.257879  -0.482319
H    -2.752969  0.968764  4.283714
H    -2.855932  -0.757773  3.985348
H    -3.113241  1.041965  1.545060
H    -4.408227  1.117785  2.723643
H    -5.046730  -0.426607  1.036490
H    -4.808570  -1.306699  2.565518
H    -2.337244  -1.529977  1.335209
H    -5.698341  -2.643492  0.727557
H    -5.281688  -3.573827  -0.665931
H    -2.983020  -4.080586  -1.027390
N    -0.114265  -0.826739  5.123787
C    -0.862028  -2.084456  5.111816
H    0.567981  -0.707556  5.873724
H    -1.174407  -2.323642  4.091833
H    -1.731402  -2.028042  5.779021
H    -0.197308  -2.877333  5.470513
Pb    1.812580  2.043967  2.765029
