36
Energy: -611335.499481 eV PBE+vdW (tier 2 basis)
C    -0.800299  -0.984438  3.904475
C    -0.185199  -0.665240  2.576758
O    1.026619  -0.239779  2.551612
H    -0.430575  -0.265055  4.644396
H    -0.463907  -1.977783  4.236657
H    -1.895662  -0.970024  3.890371
N    -0.792053  -0.794961  1.387484
C    -1.752429  -1.841820  1.119165
C    -0.932329  -3.082188  0.674947
O    0.254915  -2.930680  0.256239
H    -7.958887  0.821124  -0.514235
H    -2.317051  -2.108866  2.028306
C    -2.720984  -1.425059  -0.013614
C    -3.508421  -0.134120  0.260221
C    -4.664505  -0.296334  1.258492
N    -5.409874  0.946679  1.492471
C    -6.550884  1.321293  0.894475
N    -7.247248  2.354860  1.387715
N    -7.013830  0.670515  -0.181086
H    -3.406804  -2.255157  -0.240076
H    -2.123610  -1.272935  -0.925034
H    -3.904806  0.237726  -0.696677
H    -2.817460  0.640434  0.625095
H    -4.297215  -0.623849  2.240974
H    -5.377711  -1.065827  0.929220
H    -5.015387  1.603361  2.158394
H    -7.980567  2.801268  0.849232
H    -7.083013  2.707957  2.322926
H    -6.421062  0.065334  -0.733036
N    -1.451436  -4.305811  0.716594
C    -2.782151  -4.727426  1.143294
H    -0.824308  -5.035040  0.375827
H    -2.698838  -5.692702  1.653697
H    -3.455335  -4.843551  0.283320
H    -3.211492  -4.007757  1.846932
Pb    1.292465  -0.783531  0.295172
