36
Energy: -611332.455335 eV PBE+vdW (tier 2 basis)
C    -0.657889  -1.306578  0.569779
C    -0.304864  -0.531596  1.792157
O    0.785256  -0.861778  2.435446
H    0.198375  -1.311293  -0.117678
H    -1.531947  -0.906449  0.049267
H    -0.858086  -2.351180  0.847905
N    -1.019937  0.453758  2.265193
C    -2.250603  1.078021  1.767265
C    -2.187305  2.466943  2.480625
O    -1.422522  2.582347  3.449890
H    -0.707356  1.021475  3.093965
H    -2.192501  1.204030  0.676624
C    -3.497174  0.241327  2.149036
C    -4.803236  0.677084  1.451694
C    -5.784177  1.460112  2.351136
N    -6.940523  1.940392  1.605402
C    -6.891698  2.955787  0.669629
N    -5.926800  3.940156  0.898973
N    -7.605221  3.031822  -0.404846
H    -3.607429  0.253285  3.244056
H    -3.284061  -0.802188  1.880272
H    -5.323598  -0.215829  1.080120
H    -4.582280  1.278094  0.555543
H    -5.282747  2.305784  2.838923
H    -6.157098  0.813705  3.156493
H    -7.696347  1.275484  1.466749
H    -6.027173  4.681201  0.205550
H    -5.942225  4.320877  1.844612
H    -8.284157  2.273820  -0.522133
N    -2.955240  3.452483  2.005940
C    -2.981116  4.777775  2.622432
H    -3.607743  3.284425  1.241144
H    -1.981056  5.029885  2.987845
H    -3.675301  4.811888  3.474178
H    -3.287042  5.510499  1.869674
Pb    2.661828  -1.339187  3.340019
