36
Energy: -611335.14485 eV PBE+vdW (tier 2 basis)
C    -2.505072  -0.408332  2.175110
C    -1.184264  -0.111708  2.823455
O    -0.158140  -0.175557  1.973537
H    -3.325805  -0.369017  2.895916
H    -2.471727  -1.398292  1.700616
H    -2.698940  0.318587  1.374885
N    -1.146706  0.142438  4.093411
C    0.076794  0.345986  4.879608
C    0.826038  1.628564  4.503558
O    1.653302  1.708368  3.529596
H    -4.208704  -0.607447  5.639775
H    -0.288124  0.532815  5.903487
C    1.004273  -0.886826  4.979702
C    0.276178  -2.233703  5.144313
C    -0.685166  -2.373848  6.331368
N    -1.946354  -1.658115  6.104306
C    -3.052923  -1.821546  6.829286
N    -3.070101  -2.628520  7.900288
N    -4.173818  -1.163071  6.483935
H    1.687948  -0.723519  5.826417
H    1.646086  -0.973517  4.091095
H    1.048317  -3.004350  5.272032
H    -0.257478  -2.498114  4.219814
H    -0.901787  -3.445129  6.462569
H    -0.202846  -2.012375  7.256414
H    -1.954365  -0.964938  5.324384
H    -3.929552  -2.832603  8.395083
H    -2.233718  -3.097079  8.221475
H    -5.014816  -1.211353  7.044452
N    0.600561  2.701844  5.243863
C    1.202112  4.017717  5.021559
H    -0.058455  2.607586  6.011499
H    1.214046  4.560569  5.970867
H    0.618329  4.589000  4.288003
H    2.225820  3.896991  4.655823
Pb    1.755356  0.666421  1.544228
