36
Energy: -611334.737846 eV PBE+vdW (tier 2 basis)
C    0.382489  1.116884  -0.054529
C    -0.326231  0.225181  0.918704
O    0.192724  -0.905295  1.289694
H    1.366551  1.406361  0.346313
H    -0.175090  2.033311  -0.272379
H    0.539391  0.577159  -0.999314
N    -1.477457  0.605015  1.407089
C    -2.356223  -0.076391  2.357480
C    -3.512568  0.962170  2.500901
O    -3.308825  2.106752  2.069112
H    -1.893710  1.549210  1.214036
H    -2.728124  -1.002995  1.895752
C    -1.693721  -0.424036  3.713140
C    -0.840511  0.689780  4.353106
C    0.675499  0.519825  4.202969
N    1.130523  -0.708723  4.872837
C    2.193558  -1.474932  4.585179
N    2.720974  -2.208597  5.585024
N    2.743688  -1.545502  3.346043
H    -1.093966  -1.334760  3.583832
H    -2.503802  -0.702348  4.397559
H    -1.070880  0.752764  5.427212
H    -1.106726  1.679499  3.954862
H    1.189590  1.381485  4.655705
H    0.982172  0.468134  3.156162
H    0.742681  -0.844617  5.803890
H    3.344636  -2.984458  5.396387
H    2.502656  -2.027118  6.558859
H    3.690977  -1.924334  3.432386
N    -4.661688  0.595030  3.085437
C    -5.088074  -0.719895  3.552041
H    -5.335975  1.355000  3.158881
H    -4.546285  -1.518201  3.033992
H    -6.152596  -0.846264  3.326884
H    -4.949478  -0.832366  4.636476
Pb    2.259746  -1.709746  1.127867
