36
Energy: -611334.757275 eV PBE+vdW (tier 2 basis)
C    -0.587346  0.257403  0.174474
C    -0.684572  -0.146481  1.616630
O    0.492146  -0.491492  2.144729
H    -1.559226  0.536845  -0.240827
H    -0.155159  -0.564060  -0.412960
H    0.097435  1.110271  0.074702
N    -1.842979  -0.160943  2.201338
C    -2.033218  -0.607450  3.595891
C    -1.384875  0.371841  4.585993
O    -0.176702  0.265937  4.996043
H    -3.415035  -0.404974  0.957559
H    -3.114006  -0.500757  3.775034
C    -1.659533  -2.097932  3.842145
C    -2.798085  -3.040782  4.289638
C    -4.139046  -2.975046  3.522763
N    -3.960685  -2.550035  2.124883
C    -4.826902  -1.766653  1.453997
N    -6.144813  -1.945785  1.610216
N    -4.325935  -0.805448  0.671882
H    -0.878862  -2.175870  4.612701
H    -1.196093  -2.482878  2.923028
H    -3.033021  -2.873387  5.349613
H    -2.400138  -4.062722  4.233089
H    -4.824374  -2.258641  3.998192
H    -4.620080  -3.961604  3.573261
H    -3.010716  -2.515145  1.770281
H    -6.811867  -1.278208  1.240654
H    -6.510370  -2.835268  1.931628
H    -4.891523  -0.341163  -0.029729
N    -2.132606  1.371770  5.023715
C    -1.680724  2.435971  5.921329
H    -3.086794  1.423037  4.677606
H    -2.531213  2.774341  6.520602
H    -1.287891  3.283829  5.344790
H    -0.898945  2.049946  6.580883
Pb    1.673029  -0.428191  3.918996
