36
Energy: -611333.92197 eV PBE+vdW (tier 2 basis)
C    -0.908793  -0.853453  -0.089084
C    -0.872734  -0.043841  1.164156
O    -0.082087  -0.437463  2.104817
H    -1.620755  -0.463671  -0.822682
H    -1.163804  -1.892556  0.159826
H    0.095421  -0.871964  -0.534853
N    -1.646557  1.026421  1.251179
C    -1.845751  1.901249  2.422586
C    -0.533348  2.592248  2.812497
O    0.228056  2.107960  3.734713
H    -2.374921  1.187238  0.483284
H    -2.500997  2.699260  2.055757
C    -2.566017  1.181997  3.590647
C    -4.104111  1.335887  3.627810
C    -4.931832  1.071280  2.344827
N    -5.143388  2.258694  1.511939
C    -4.370574  2.684484  0.453903
N    -3.810563  1.637336  -0.345325
N    -4.076796  3.886940  0.108528
H    -2.181051  1.565939  4.546680
H    -2.323510  0.106875  3.550890
H    -4.348958  2.346169  3.990146
H    -4.464593  0.653042  4.410206
H    -5.920534  0.705476  2.651506
H    -4.493857  0.268914  1.736756
H    -5.636330  3.014566  1.979732
H    -3.537296  2.058406  -1.236212
H    -4.480114  0.886154  -0.524955
H    -4.460995  4.589201  0.747390
N    -0.166610  3.718473  2.235782
C    -0.806807  4.511335  1.181225
H    0.719978  4.089558  2.586773
H    -1.766020  4.091000  0.859764
H    -0.132030  4.557913  0.317255
H    -0.967584  5.529838  1.554908
Pb    0.747060  -0.021403  4.108055
