36
Energy: -611333.600709 eV PBE+vdW (tier 2 basis)
C    -2.698094  1.630977  -0.760033
C    -1.870416  1.305687  0.422796
O    -1.120234  2.206942  0.959623
H    -3.542320  0.940415  -0.886598
H    -2.054381  1.495774  -1.647263
H    -3.018515  2.676890  -0.741076
N    -1.856689  0.068817  0.953802
C    -3.051822  -0.718686  1.236109
C    -3.806007  0.008434  2.346628
O    -3.254745  0.952994  3.044649
H    -1.061485  -0.120167  1.568941
H    -3.707018  -0.763916  0.318221
C    -2.681736  -2.182040  1.615178
C    -3.060255  -3.244453  0.575791
C    -2.269942  -3.271409  -0.732720
N    -2.279243  -2.049454  -1.567257
C    -3.429932  -1.498474  -2.107406
N    -3.315903  -1.097895  -3.415012
N    -4.462793  -1.277867  -1.336513
H    -3.170232  -2.442639  2.564319
H    -1.599995  -2.220946  1.825694
H    -4.132463  -3.186482  0.355374
H    -2.900080  -4.227494  1.043221
H    -2.633492  -4.131157  -1.318983
H    -1.210339  -3.462857  -0.513652
H    -1.490870  -2.029199  -2.207827
H    -2.742883  -1.638679  -4.055272
H    -4.116993  -0.651233  -3.847509
H    -5.271235  -0.949697  -1.869807
N    -5.054310  -0.311988  2.623392
C    -5.891225  -1.321876  1.966492
H    -5.467409  0.193291  3.408184
H    -6.921649  -0.952626  1.951368
H    -5.861785  -2.264867  2.527493
H    -5.556631  -1.486400  0.936392
Pb    -1.570502  2.437344  3.166244
