36
Energy: -611335.007104 eV PBE+vdW (tier 2 basis)
C    -1.791707  0.913506  1.950169
C    -0.655822  -0.011215  1.671666
O    0.428647  0.444828  1.163905
H    -1.658643  1.363740  2.945617
H    -2.766454  0.415378  1.929278
H    -1.778345  1.720634  1.209913
N    -0.744284  -1.320296  1.908311
C    -1.784378  -2.084541  2.613068
C    -2.120383  -1.436165  3.978726
O    -1.230885  -0.901394  4.670059
H    0.055831  -1.858535  1.584652
H    -2.685511  -2.105599  1.980593
C    -1.310388  -3.551919  2.795821
C    -0.336208  -3.908147  3.938149
C    1.112745  -3.406339  3.867668
N    1.185507  -1.957731  4.113482
C    2.076346  -1.084647  3.682048
N    3.095893  -1.430585  2.756700
N    2.066406  0.223442  3.927079
H    -0.908949  -3.895358  1.827522
H    -2.216938  -4.151455  2.953062
H    -0.763367  -3.626898  4.912601
H    -0.275944  -5.005212  3.959784
H    1.547116  -3.658348  2.885803
H    1.709219  -3.931449  4.627596
H    0.306860  -1.528181  4.503609
H    4.032823  -1.281702  3.138936
H    3.040053  -2.366577  2.355237
H    1.404277  0.540152  4.637543
N    -3.396517  -1.541353  4.361410
C    -3.905440  -1.096781  5.658736
H    -4.061334  -1.959364  3.716481
H    -4.432928  -1.921489  6.151641
H    -4.598689  -0.257015  5.526654
H    -3.061746  -0.778161  6.275756
Pb    2.519343  1.062409  1.821033
