36
Energy: -611335.233844 eV PBE+vdW (tier 2 basis)
C    -0.132931  -0.075173  1.750274
C    -0.718498  -0.277668  3.115167
O    -0.031402  0.101095  4.128752
H    -0.838958  0.405195  1.063247
H    0.143411  -1.047469  1.313904
H    0.776970  0.526683  1.831551
N    -1.919423  -0.839277  3.398987
C    -2.491219  -1.931795  2.593421
C    -1.508855  -3.122629  2.741715
O    -0.848769  -3.233837  3.825289
H    -1.880002  2.594375  3.885843
H    -3.375983  -2.263537  3.167551
C    -3.028946  -1.614602  1.184790
C    -4.245196  -0.657726  1.160306
C    -3.995255  0.840363  0.968243
N    -3.362233  1.471618  2.131964
C    -3.132021  2.782967  2.260134
N    -3.631945  3.655281  1.376219
N    -2.376828  3.231767  3.277267
H    -3.393861  -2.563330  0.762659
H    -2.239103  -1.264373  0.507456
H    -4.868944  -0.813853  2.054411
H    -4.878037  -0.949740  0.311779
H    -4.976694  1.308191  0.793316
H    -3.378772  1.013024  0.070073
H    -2.984844  0.841129  2.846621
H    -4.307056  3.371776  0.677833
H    -3.424848  4.645037  1.436892
H    -2.301996  4.219931  3.485715
N    -1.383979  -4.021325  1.778838
C    -0.545806  -5.221520  1.858591
H    -1.943598  -3.899236  0.940166
H    -0.064871  -5.384388  0.888737
H    -1.160522  -6.095609  2.108563
H    0.213397  -5.080122  2.631284
Pb    -1.019059  -1.563032  5.481487
