36
Energy: -611335.693664 eV PBE+vdW (tier 2 basis)
C    0.065115  0.456221  0.867290
C    -0.695403  0.722429  2.124537
O    -0.651334  1.867877  2.658377
H    -0.235740  1.191082  0.108488
H    -0.086575  -0.554328  0.473792
H    1.135431  0.615939  1.055671
N    -1.432641  -0.273734  2.654507
C    -2.308579  -0.095115  3.810670
C    -1.550270  -0.338437  5.121712
O    -0.982811  0.656349  5.671608
H    -1.428102  -1.171970  2.177746
H    -2.511449  0.979752  3.848690
C    -3.674093  -0.759614  3.639835
C    -4.545052  0.006747  2.625996
C    -4.573157  1.532279  2.811771
N    -4.893122  1.932310  4.191413
C    -4.396843  3.019821  4.836567
N    -5.231063  3.637711  5.700402
N    -3.141629  3.455411  4.650429
H    -4.165879  -0.762130  4.622915
H    -3.586999  -1.813483  3.332757
H    -5.567232  -0.393737  2.680666
H    -4.210900  -0.187212  1.596605
H    -5.323629  1.956389  2.127483
H    -3.619981  2.004371  2.546016
H    -5.799905  1.617451  4.527602
H    -4.879245  4.298970  6.382336
H    -6.238656  3.543476  5.634360
H    -3.089419  4.430702  4.957323
N    -1.491898  -1.554757  5.638676
C    -0.776156  -1.922894  6.863024
H    -1.991920  -2.296289  5.154224
H    0.000417  -2.660352  6.627464
H    -1.479341  -2.358379  7.582482
H    -0.317040  -1.028994  7.290358
Pb    -0.845387  2.831136  4.780518
