36
Energy: -611334.29618 eV PBE+vdW (tier 2 basis)
C    -0.456804  -0.017276  3.182155
C    -1.925830  0.022199  2.968063
O    -2.699944  0.589941  3.794263
H    -0.217032  -0.308977  4.211159
H    -0.087032  1.014004  3.051484
H    0.064371  -0.645421  2.453197
N    -2.479899  -0.515396  1.835301
C    -2.454724  -1.965119  1.515050
C    -1.884656  -2.751425  2.693049
O    -2.429175  -2.570522  3.833334
H    -3.412060  -0.119285  1.688358
H    -3.501536  -2.243684  1.679459
C    -2.198577  -2.295950  0.041959
C    -3.232367  -3.292560  -0.544391
C    -4.673061  -3.259274  0.029994
N    -5.294204  -1.927830  0.138127
C    -5.536022  -1.225511  1.270117
N    -5.741563  0.116547  1.144657
N    -5.481730  -1.728615  2.509970
H    -1.178424  -2.652940  -0.163766
H    -2.266563  -1.341939  -0.496482
H    -2.895452  -4.331248  -0.411121
H    -3.270915  -3.138951  -1.631038
H    -4.709505  -3.734600  1.018630
H    -5.315173  -3.879458  -0.608888
H    -5.569199  -1.494090  -0.739935
H    -6.341446  0.560281  1.833243
H    -5.756572  0.547107  0.225085
H    -5.613993  -2.742692  2.509378
N    -0.924394  -3.638800  2.503275
C    -0.371438  -4.526202  3.528865
H    -0.530440  -3.699320  1.567075
H    0.678352  -4.268144  3.714495
H    -0.428385  -5.564393  3.182381
H    -0.946073  -4.409707  4.450241
Pb    -4.232856  -1.111468  4.500175
