36
Energy: -611335.624936 eV PBE+vdW (tier 2 basis)
C    -0.351331  0.114386  -0.078708
C    -0.390400  -0.194723  1.386881
O    0.557365  -0.863106  1.896992
H    -1.253906  0.610466  -0.450500
H    -0.191343  -0.815822  -0.639668
H    0.517679  0.756372  -0.280408
N    -1.455686  0.237218  2.079550
C    -1.811050  0.135288  3.515796
C    -0.776442  0.852417  4.405364
O    0.343891  0.335074  4.679628
H    -2.127206  0.760091  1.524733
H    -2.752364  0.697886  3.573775
C    -2.077114  -1.262958  4.110151
C    -2.939831  -2.272441  3.338656
C    -2.225893  -3.112830  2.249879
N    -0.803507  -3.369429  2.505717
C    -0.253137  -3.847189  3.642828
N    -0.934058  -4.767670  4.352921
N    0.935229  -3.358623  4.026861
H    -2.576862  -1.059120  5.068984
H    -1.122893  -1.721740  4.388373
H    -3.814422  -1.789604  2.878998
H    -3.351540  -2.956011  4.092512
H    -2.252383  -2.609196  1.276874
H    -2.772039  -4.055041  2.101699
H    -0.157404  -2.814563  1.956324
H    -0.579544  -5.097717  5.242658
H    -1.641967  -5.341497  3.907259
H    1.413202  -3.955173  4.705285
N    -1.122322  2.024702  4.921375
C    -0.266233  2.804135  5.820473
H    -2.036692  2.403108  4.692634
H    0.064776  2.180259  6.658277
H    -0.844454  3.649593  6.201504
H    0.613214  3.178825  5.282632
Pb    1.878015  -1.226724  3.777968
