36
Energy: -611333.576011 eV PBE+vdW (tier 2 basis)
C    -1.768413  0.906676  0.111408
C    -1.300574  0.508161  1.469206
O    -0.028359  0.526977  1.687435
H    -1.369477  1.903672  -0.120674
H    -2.856808  0.924505  0.024400
H    -1.350672  0.217382  -0.635349
N    -2.176818  0.168174  2.410769
C    -1.717172  -0.141849  3.764376
C    -0.967631  -1.494733  3.791040
O    0.294536  -1.450777  4.072836
H    -3.218317  0.112982  2.134344
H    -0.900645  0.568202  3.968651
C    -2.696790  0.117081  4.938113
C    -4.140962  -0.401955  4.910522
C    -5.173145  0.577755  4.285427
N    -6.184040  -0.093135  3.470881
C    -5.796423  -0.770522  2.328096
N    -4.852468  -0.026887  1.530065
N    -6.142525  -1.917039  1.884069
H    -2.712360  1.208996  5.076062
H    -2.177076  -0.272044  5.826566
H    -4.435730  -0.618201  5.945572
H    -4.212097  -1.360989  4.386863
H    -4.666867  1.337085  3.672698
H    -5.695361  1.136391  5.070745
H    -6.906421  -0.574291  4.001019
H    -4.835942  -0.503006  0.623905
H    -5.196803  0.926858  1.381262
H    -6.763435  -2.427083  2.518799
N    -1.489796  -2.675547  3.529484
C    -2.835744  -3.077794  3.113756
H    -0.814983  -3.438523  3.620342
H    -2.732600  -3.880280  2.375098
H    -3.377676  -2.252033  2.650870
H    -3.401784  -3.463284  3.970325
Pb    1.686190  -0.067118  2.983975
