36
Energy: -611333.311536 eV PBE+vdW (tier 2 basis)
C    -0.239649  1.278875  -0.435232
C    0.006641  0.595580  0.862171
O    1.203655  0.485575  1.307077
H    -0.055136  2.359515  -0.336879
H    -1.245517  1.108991  -0.828713
H    0.504344  0.908601  -1.155090
N    -1.005670  0.091086  1.592088
C    -2.252450  0.814805  1.868257
C    -1.882125  2.068447  2.680483
O    -0.727517  2.178869  3.245506
H    -0.713443  -0.527613  2.351364
H    -2.715438  1.123940  0.920634
C    -3.229643  -0.072733  2.654153
C    -3.801410  -1.264199  1.882020
C    -4.478310  -0.955144  0.539694
N    -5.332405  0.248498  0.475344
C    -6.441345  0.432942  1.314402
N    -7.554834  0.918363  0.676173
N    -6.298256  0.249042  2.590663
H    -4.088557  0.529306  2.984403
H    -2.727771  -0.426128  3.570487
H    -4.527796  -1.731664  2.557643
H    -3.029806  -2.023632  1.679758
H    -5.043181  -1.854582  0.242130
H    -3.715608  -0.807882  -0.240279
H    -5.527988  0.506520  -0.488709
H    -7.751790  0.665059  -0.286091
H    -8.370968  1.135123  1.236773
H    -7.185365  0.344067  3.091102
N    -2.756902  3.042047  2.837485
C    -4.127092  3.133104  2.324022
H    -2.440213  3.808185  3.433876
H    -4.326629  4.178126  2.066530
H    -4.842809  2.799949  3.087246
H    -4.257496  2.505911  1.436382
Pb    1.440277  1.497160  3.344568
