34
Energy: -571606.309209 eV PBE+vdW (tier 2 basis)
C    -1.809171  0.509998  -0.660338
C    -1.378064  0.814009  0.735782
O    -1.279419  2.031797  1.070914
H    -2.860467  0.793595  -0.810199
H    -1.637784  -0.556491  -0.912051
H    -1.214238  1.130678  -1.345772
N    -1.051841  -0.164442  1.602669
C    -1.833487  -1.376818  1.858596
C    -2.734127  -1.023107  3.071829
O    -2.462983  -0.032872  3.812376
H    -0.604572  0.179402  2.455125
H    -2.470059  -1.565118  0.983577
C    -0.900209  -2.572064  2.141071
C    0.047679  -2.925610  0.979201
C    -0.443078  -3.993865  -0.018875
C    -1.606085  -3.644752  -0.940299
N    -1.340545  -2.562649  -1.856194
H    -1.498502  -3.448389  2.425702
H    -0.306517  -2.318568  3.032818
H    0.974139  -3.316724  1.419652
H    0.347609  -2.008336  0.447694
H    -0.724106  -4.903419  0.532404
H    0.414131  -4.289460  -0.644094
H    -2.540671  -3.419829  -0.392237
H    -1.868897  -4.556906  -1.524322
H    -0.386352  -2.491418  -2.211561
H    -2.033847  -2.405882  -2.587496
N    -3.782647  -1.787102  3.383389
C    -4.210466  -3.058674  2.810456
H    -4.291702  -1.463872  4.208889
H    -3.915364  -3.132348  1.758826
H    -5.303042  -3.113274  2.872396
H    -3.789008  -3.906667  3.368358
Hg    -1.887980  2.366080  3.316265
