34
Energy: -571606.461309 eV PBE+vdW (tier 2 basis)
C    -0.982280  -2.330753  2.286160
C    -0.536036  -0.996634  2.775281
O    0.595300  -0.904613  3.352581
H    -0.410839  -2.608238  1.387533
H    -2.057975  -2.365829  2.087868
H    -0.727405  -3.078652  3.050768
N    -1.304346  0.111237  2.645110
C    -2.045835  0.547254  1.463856
C    -1.049608  1.213430  0.488358
O    0.068524  1.739265  0.857974
H    -1.041588  0.873725  3.272872
H    -2.471287  -0.337561  0.969956
C    -3.176122  1.508546  1.910267
C    -4.151663  1.981418  0.830791
C    -5.040283  0.876523  0.200791
C    -5.025029  0.876816  -1.327335
N    -3.758593  0.362454  -1.881222
H    -2.709799  2.389756  2.380861
H    -3.724158  0.981551  2.706283
H    -3.610855  2.533021  0.047645
H    -4.798318  2.733623  1.300489
H    -6.079866  1.009457  0.524986
H    -4.757608  -0.125727  0.565488
H    -5.182948  1.890297  -1.719427
H    -5.862350  0.258522  -1.702113
H    -3.684782  -0.653224  -1.781122
H    -3.658096  0.581821  -2.875450
N    -1.399558  1.339708  -0.774405
C    -0.555817  1.954396  -1.800174
H    -2.367751  0.992995  -1.107597
H    -0.574291  3.048887  -1.706840
H    0.480410  1.611837  -1.708849
H    -0.953523  1.675838  -2.780458
Hg    1.482446  1.060664  2.521366
