34
Energy: -571606.427869 eV PBE+vdW (tier 2 basis)
C    0.256210  -0.344246  0.445188
C    -0.044243  -0.217215  1.903836
O    0.913822  -0.008510  2.701885
H    1.204174  0.168413  0.246265
H    -0.532293  0.083515  -0.180345
H    0.398536  -1.404351  0.189668
N    -1.316508  -0.229389  2.404247
C    -2.351892  -1.222472  2.114427
C    -1.781588  -2.588808  2.633918
O    -0.542383  -2.765677  2.617026
H    -1.321500  0.066672  3.382147
H    -3.201982  -0.938643  2.753045
C    -2.868575  -1.316012  0.663288
C    -3.542741  -0.017763  0.200126
C    -4.339470  -0.109256  -1.106092
C    -3.426247  -0.241548  -2.394137
N    -4.175549  -0.213987  -3.593154
H    -3.604082  -2.135090  0.644180
H    -2.058166  -1.628680  -0.008702
H    -2.807720  0.800608  0.145412
H    -4.267594  0.301005  0.969190
H    -4.941857  0.800458  -1.226422
H    -5.033401  -0.961714  -1.092367
H    -2.878757  -1.194597  -2.336241
H    -2.716295  0.597359  -2.395737
H    -4.644973  -1.043685  -3.946678
H    -4.398006  0.662448  -4.058313
N    -2.656788  -3.492637  3.076914
C    -2.291875  -4.788428  3.645556
H    -3.647441  -3.260738  3.046992
H    -2.413824  -4.775176  4.737499
H    -1.252864  -5.010375  3.390367
H    -2.950412  -5.560089  3.229673
Hg    1.227612  -1.805008  4.228907
