34
Energy: -571606.507757 eV PBE+vdW (tier 2 basis)
C    1.022116  2.814740  0.891162
C    0.778929  1.860407  2.014298
O    1.635941  1.784241  2.943994
H    0.702106  3.824010  1.192917
H    0.505640  2.516075  -0.026998
H    2.102053  2.871272  0.706594
N    -0.317505  1.068882  2.046891
C    -1.684113  1.480922  1.720863
C    -2.199595  2.262981  2.954263
O    -1.762788  2.019413  4.111832
H    -0.284821  0.367099  2.788491
H    -1.651399  2.142263  0.843956
C    -2.521209  0.210305  1.432287
C    -3.930631  0.388151  0.849722
C    -3.967582  0.870355  -0.610575
C    -5.385590  0.828453  -1.218997
N    -5.878464  -0.488808  -1.438893
H    -2.600810  -0.358390  2.372629
H    -1.919358  -0.405967  0.747227
H    -4.543014  1.045459  1.487893
H    -4.420169  -0.595534  0.903900
H    -3.294172  0.255623  -1.229012
H    -3.607956  1.905825  -0.711261
H    -5.335712  1.370440  -2.193996
H    -6.115486  1.379336  -0.609199
H    -6.875577  -0.682636  -1.392777
H    -5.320841  -1.168080  -1.952472
N    -3.154163  3.175626  2.760850
C    -3.766108  3.967671  3.827349
H    -3.530171  3.280151  1.822249
H    -3.042936  4.099480  4.637376
H    -4.653507  3.459318  4.228494
H    -4.059435  4.940933  3.421764
Hg    0.562582  1.673472  5.042529
