34
Energy: -571606.797493 eV PBE+vdW (tier 2 basis)
C    -0.386825  0.798910  -0.089823
C    -0.277523  0.718425  1.404821
O    0.758648  1.178424  1.951394
H    -0.559558  1.847493  -0.371952
H    -1.200644  0.181391  -0.487335
H    0.564760  0.493026  -0.539450
N    -1.300407  0.150739  2.084099
C    -1.443552  0.149272  3.537472
C    -0.414966  -0.791273  4.212966
O    0.439696  -0.299695  5.009410
H    -2.110390  -0.122441  1.532782
H    -1.158997  1.149529  3.907116
C    -2.918715  -0.064886  3.940199
C    -3.269912  0.225501  5.410334
C    -2.947857  -0.888794  6.418861
C    -3.469360  -0.565919  7.836415
N    -4.891560  -0.563953  7.942554
H    -3.260031  -1.071088  3.657570
H    -3.492238  0.639990  3.318097
H    -4.351984  0.418529  5.446157
H    -2.792260  1.166825  5.726228
H    -1.865429  -1.053138  6.515009
H    -3.384766  -1.844031  6.085087
H    -3.089714  0.400659  8.194934
H    -3.044535  -1.335094  8.522627
H    -5.426526  -1.382056  7.660139
H    -5.354348  0.049860  8.607592
N    -0.401179  -2.106917  4.006566
C    -1.326670  -2.963592  3.268124
H    0.342796  -2.584975  4.518096
H    -0.760407  -3.821600  2.889620
H    -1.758519  -2.438438  2.413650
H    -2.126827  -3.338421  3.920432
Hg    1.406510  1.688503  4.178731
