34
Energy: -571606.413983 eV PBE+vdW (tier 2 basis)
C    -0.933146  1.499450  -1.368506
C    -0.497000  0.841715  -0.100079
O    0.665339  0.348538  -0.032966
H    -0.533753  2.524647  -1.406860
H    -2.022647  1.520551  -1.475751
H    -0.487983  0.960720  -2.214227
N    -1.328170  0.742518  0.967685
C    -2.170690  1.826386  1.478800
C    -1.265931  2.634826  2.441095
O    -0.254282  2.090060  2.971208
H    -0.923172  0.190485  1.726363
H    -2.469042  2.458177  0.631513
C    -3.429684  1.288325  2.191068
C    -4.403981  0.540690  1.253512
C    -4.306368  -0.997154  1.257756
C    -4.999208  -1.670380  2.464054
N    -6.419010  -1.610040  2.412306
H    -3.943796  2.142436  2.650635
H    -3.110686  0.653162  3.033083
H    -4.252737  0.887204  0.219838
H    -5.432889  0.830418  1.507833
H    -3.259740  -1.331642  1.245418
H    -4.754920  -1.393433  0.334630
H    -4.665439  -1.270248  3.431808
H    -4.678144  -2.740289  2.454394
H    -6.915582  -1.893552  1.569957
H    -6.973328  -1.578976  3.263957
N    -1.566981  3.896698  2.755708
C    -2.748821  4.681916  2.414985
H    -0.902012  4.326460  3.402256
H    -2.440714  5.721402  2.254036
H    -3.481650  4.662034  3.234157
H    -3.218562  4.311599  1.499217
Hg    1.749899  0.905295  2.014207
