34
Energy: -571608.484006 eV PBE+vdW (tier 2 basis)
C    -0.767055  0.422185  -0.029889
C    -0.803829  -0.083343  1.380677
O    0.151619  -0.761878  1.827784
H    -0.618180  -0.425369  -0.711020
H    0.107121  1.077815  -0.143222
H    -1.667148  0.971240  -0.325727
N    -1.896335  0.232185  2.120277
C    -2.163523  -0.076003  3.534810
C    -1.034684  0.492451  4.429424
O    0.041566  -0.138058  4.728502
H    -2.607891  0.783243  1.650100
H    -3.050890  0.524931  3.766162
C    -2.525342  -1.564080  3.887875
C    -2.488403  -2.615154  2.750941
C    -2.155437  -4.063006  3.208415
C    -0.812876  -4.621420  2.731836
N    0.404453  -4.125804  3.501115
H    -3.532898  -1.550425  4.323167
H    -1.898579  -1.887340  4.737723
H    -1.780655  -2.320138  1.964476
H    -3.465069  -2.618652  2.252700
H    -2.909885  -4.747722  2.797992
H    -2.249394  -4.175131  4.300717
H    -0.634414  -4.374017  1.677904
H    -0.797217  -5.716259  2.828661
H    0.437471  -4.572163  4.425185
H    1.262839  -4.409036  3.013471
N    -1.196500  1.705780  4.920604
C    -0.209467  2.398962  5.757852
H    -2.071250  2.186500  4.727367
H    0.784314  2.318863  5.304901
H    -0.185593  1.955613  6.761222
H    -0.499500  3.450056  5.831360
Hg    0.404633  -2.015823  3.815640
