34
Energy: -571606.39411 eV PBE+vdW (tier 2 basis)
C    -1.213241  1.550933  1.483415
C    -1.172008  0.951199  2.849667
O    -0.337074  1.398441  3.684118
H    -0.870883  2.590034  1.561079
H    -2.214158  1.526687  1.044419
H    -0.501305  1.026293  0.829480
N    -2.056096  -0.006380  3.274323
C    -2.371124  -1.267700  2.602919
C    -1.059394  -2.114269  2.736961
O    0.034685  -1.531359  2.551318
H    -2.005953  -0.111838  4.290264
H    -3.157662  -1.733642  3.216248
C    -2.887585  -1.173419  1.152374
C    -3.539394  -2.482554  0.682445
C    -4.366816  -2.380768  -0.604452
C    -3.490180  -2.146496  -1.902410
N    -4.260389  -2.168487  -3.088553
H    -2.067763  -0.884276  0.480956
H    -3.637618  -0.368844  1.130365
H    -4.246520  -2.829154  1.456869
H    -2.785215  -3.278739  0.577513
H    -5.103402  -1.567658  -0.537438
H    -4.923196  -3.315420  -0.751621
H    -2.731215  -2.939884  -1.951204
H    -2.996817  -1.166495  -1.815815
H    -4.783100  -1.353685  -3.399198
H    -4.437826  -3.035484  -3.589116
N    -1.173050  -3.398314  3.075453
C    -0.037154  -4.287291  3.315860
H    -2.105952  -3.777260  3.220946
H    0.835506  -3.909061  2.776681
H    -0.289689  -5.291606  2.959108
H    0.188437  -4.344771  4.390174
Hg    1.294448  -0.223739  4.354457
