34
Energy: -571606.337531 eV PBE+vdW (tier 2 basis)
C    -0.952347  1.189392  -0.558748
C    -0.220732  0.217384  0.299154
O    1.012654  0.020390  0.037677
H    -1.788236  1.661653  -0.036788
H    -1.306020  0.686008  -1.472446
H    -0.234524  1.950988  -0.893787
N    -0.760908  -0.409671  1.386224
C    -1.982350  -1.215716  1.564638
C    -1.528908  -2.667043  1.858022
O    -0.482208  -3.236458  1.346574
H    -0.049628  -0.604597  2.093147
H    -2.503755  -0.847521  2.460300
C    -2.945371  -1.173348  0.358706
C    -4.289685  -1.888542  0.563319
C    -5.237310  -1.241336  1.607539
C    -5.701347  -2.182575  2.718333
N    -4.637768  -2.477081  3.704140
H    -2.439343  -1.596747  -0.523155
H    -3.151833  -0.117758  0.139145
H    -4.126746  -2.950907  0.793986
H    -4.784722  -1.891963  -0.415980
H    -6.136480  -0.871970  1.098369
H    -4.783993  -0.343315  2.060465
H    -6.047125  -3.137602  2.300001
H    -6.566092  -1.734772  3.239581
H    -4.424043  -1.656519  4.278271
H    -4.922006  -3.221828  4.346414
N    -2.306298  -3.401916  2.615413
C    -2.043912  -4.804825  2.943372
H    -3.235889  -2.976513  3.012728
H    -2.743834  -5.104981  3.728502
H    -1.015826  -4.935363  3.299047
H    -2.197076  -5.443664  2.063669
Hg    1.306938  -2.182454  0.551676
