34
Energy: -571607.942656 eV PBE+vdW (tier 2 basis)
C    0.383426  -0.087276  1.071705
C    -0.202174  -0.018841  2.427144
O    0.590316  -0.149019  3.445183
H    1.018762  0.794762  0.899591
H    -0.370858  -0.182998  0.285911
H    1.059586  -0.956083  1.037289
N    -1.520980  0.149028  2.638484
C    -2.366039  1.170877  1.988767
C    -1.548827  2.480011  1.936938
O    -0.672372  2.691816  2.816518
H    -1.828323  -0.112719  3.573392
H    -2.654964  0.826910  0.987659
C    -3.656054  1.405973  2.826191
C    -3.523919  2.219987  4.137789
C    -3.144932  1.436292  5.418201
C    -2.425365  2.218303  6.514935
N    -1.013186  2.653598  6.146619
H    -4.129543  0.428742  3.009311
H    -4.350960  1.939973  2.165224
H    -4.496359  2.694280  4.323487
H    -2.828839  3.056133  3.972667
H    -2.539890  0.531513  5.211230
H    -4.056044  1.023401  5.875784
H    -2.330203  1.602398  7.416466
H    -2.971477  3.134475  6.784122
H    -1.028698  3.520483  5.594881
H    -0.473103  2.853829  6.996776
N    -1.826176  3.383569  0.998639
C    -2.803588  3.320050  -0.091696
H    -1.290707  4.247488  1.085170
H    -3.786726  3.685075  0.232580
H    -2.901674  2.300885  -0.479074
H    -2.448861  3.955739  -0.908636
Hg    -0.020518  1.266449  4.869120
