34
Energy: -571607.947016 eV PBE+vdW (tier 2 basis)
C    0.106268  0.524261  1.160014
C    -0.814922  -0.495064  1.751879
O    -0.438785  -1.680117  1.910588
H    -0.317182  1.534231  1.143959
H    0.354991  0.219121  0.134265
H    1.046450  0.530678  1.726212
N    -2.070104  -0.080179  2.108196
C    -2.979146  -0.995763  2.769323
C    -3.758595  -1.844162  1.742089
O    -3.335466  -3.021392  1.435618
H    -2.316049  0.897777  1.982690
H    -2.273943  -1.716473  3.191956
C    -3.694461  -0.491330  4.043588
C    -2.995515  -1.141583  5.266677
C    -3.253728  -2.668636  5.382733
C    -2.115858  -3.593183  5.829709
N    -1.017165  -3.859552  4.805287
H    -4.762169  -0.750416  4.032759
H    -3.636171  0.602928  4.114833
H    -3.332617  -0.648805  6.186906
H    -1.917169  -0.920917  5.194253
H    -3.668937  -3.082512  4.442672
H    -4.066859  -2.832249  6.104847
H    -2.533011  -4.576149  6.075821
H    -1.611679  -3.205511  6.727163
H    -0.585272  -4.771758  4.989751
H    -0.264864  -3.165178  4.878084
N    -4.830574  -1.352992  1.156888
C    -5.629053  -2.022968  0.123125
H    -5.121060  -0.415840  1.429294
H    -5.487455  -1.513255  -0.837947
H    -6.686978  -1.976886  0.404056
H    -5.310486  -3.063861  0.037203
Hg    -1.703434  -3.663268  2.725511
