34
Energy: -571607.911537 eV PBE+vdW (tier 2 basis)
C    1.043440  0.438088  0.873633
C    0.299259  0.582371  2.161729
O    0.791688  1.376139  3.027844
H    1.119963  1.421540  0.390447
H    0.568870  -0.270311  0.185891
H    2.068095  0.107248  1.090630
N    -0.832680  -0.135026  2.327306
C    -1.684514  -0.066178  3.511742
C    -1.030184  -0.851027  4.680647
O    -0.331410  -0.199809  5.511240
H    -1.120205  -0.720304  1.546596
H    -1.601475  0.977228  3.840382
C    -3.194773  -0.157321  3.274450
C    -4.017082  0.181052  4.549587
C    -3.455135  1.201791  5.572532
C    -3.163770  2.640566  5.096825
N    -1.891420  3.198278  5.710177
H    -3.511786  -1.135628  2.893392
H    -3.417427  0.565298  2.474758
H    -4.183534  -0.743607  5.119972
H    -5.015347  0.498961  4.220315
H    -2.546508  0.788840  6.038055
H    -4.179850  1.252116  6.395949
H    -3.976192  3.323856  5.383197
H    -3.055241  2.726290  4.007353
H    -1.911516  3.109443  6.733155
H    -1.793861  4.198468  5.500857
N    -1.160134  -2.165880  4.806231
C    -1.895011  -3.117119  3.969630
H    -0.664260  -2.551867  5.610811
H    -1.439857  -4.103446  4.101385
H    -1.820108  -2.857219  2.909204
H    -2.949849  -3.179922  4.266274
Hg    -0.154769  2.083350  4.895891
