34
Energy: -571606.934614 eV PBE+vdW (tier 2 basis)
C    1.121615  0.688634  0.355591
C    0.752220  0.062870  1.670491
O    1.605357  0.117203  2.596101
H    1.232663  1.772134  0.501492
H    0.374659  0.505452  -0.425196
H    2.096706  0.302209  0.035561
N    -0.468176  -0.506614  1.771165
C    -1.132136  -0.981972  2.987651
C    -0.659400  -2.414399  3.350638
O    0.203054  -2.609012  4.257284
H    -1.036867  -0.473016  0.928478
H    -0.795611  -0.350989  3.825927
C    -2.658653  -0.836231  2.844178
C    -3.457830  -1.202226  4.108507
C    -3.515380  -0.112177  5.197324
C    -4.556583  0.992107  4.934743
N    -5.903661  0.531352  5.050858
H    -3.007986  -1.446869  1.994280
H    -2.857048  0.205615  2.548758
H    -3.051926  -2.123951  4.552276
H    -4.483998  -1.454322  3.805994
H    -2.538491  0.376415  5.332308
H    -3.741133  -0.582169  6.165864
H    -4.435495  1.464521  3.948730
H    -4.371193  1.804969  5.675188
H    -6.190241  0.020580  5.883366
H    -6.651508  1.024669  4.570473
N    -1.174336  -3.443902  2.693082
C    -0.790396  -4.840958  2.914604
H    -1.941937  -3.263384  2.051306
H    -1.381709  -5.278970  3.729358
H    0.269940  -4.888106  3.180192
H    -0.972280  -5.401892  1.993185
Hg    1.699382  -0.881268  4.704832
