34
Energy: -571606.882772 eV PBE+vdW (tier 2 basis)
C    0.878001  2.689567  2.139740
C    -0.319119  2.094882  2.822992
O    -1.320791  2.843184  2.995073
H    1.256813  3.522591  2.746360
H    0.560351  3.112398  1.177201
H    1.677958  1.960707  1.968409
N    -0.249218  0.799953  3.194740
C    -1.349344  -0.075759  3.614656
C    -1.426735  -0.129130  5.158327
O    -1.706865  0.916182  5.818287
H    0.645027  0.348129  3.026562
H    -2.284034  0.430804  3.322009
C    -1.321654  -1.418820  2.849756
C    0.019318  -2.173975  2.775425
C    -0.090428  -3.616481  2.253514
C    -0.493758  -3.712800  0.738295
N    -0.468483  -5.043978  0.241540
H    -1.669458  -1.196198  1.830932
H    -2.101583  -2.062044  3.287610
H    0.506407  -2.234773  3.763845
H    0.730917  -1.624882  2.136937
H    -0.819409  -4.191852  2.843145
H    0.881914  -4.112407  2.372567
H    0.215408  -3.102708  0.157101
H    -1.506395  -3.308213  0.599713
H    -1.282983  -5.647705  0.292258
H    0.394769  -5.472830  -0.078283
N    -1.203955  -1.267106  5.801867
C    -1.274616  -1.412529  7.258636
H    -0.909808  -2.073205  5.259546
H    -0.317357  -1.137248  7.720216
H    -1.505893  -2.455282  7.494136
H    -2.058257  -0.757027  7.650574
Hg    -2.766741  2.729553  4.805312
