34
Energy: -571606.779193 eV PBE+vdW (tier 2 basis)
C    -2.163933  -0.865086  0.892260
C    -1.283820  -0.511118  2.059712
O    -0.059820  -0.289896  1.734088
H    -3.205328  -1.010006  1.200567
H    -1.778759  -1.774556  0.412846
H    -2.113158  -0.060111  0.147593
N    -1.855581  -0.425826  3.254568
C    -1.296756  -0.341412  4.620883
C    -0.541617  0.977519  4.937275
O    0.705702  1.161067  4.757235
H    -2.823498  -0.896844  3.308752
H    -2.195434  -0.279592  5.247280
C    -0.547360  -1.613033  5.062688
C    -1.243600  -2.935621  4.695639
C    -2.563225  -3.290238  5.414225
C    -3.806817  -2.419931  5.204807
N    -4.055187  -2.028823  3.798885
H    -0.370658  -1.542830  6.146518
H    0.467944  -1.653994  4.609139
H    -0.532646  -3.738704  4.932878
H    -1.377583  -2.991562  3.604816
H    -2.391453  -3.353994  6.498808
H    -2.803458  -4.319294  5.102504
H    -3.765874  -1.497651  5.805307
H    -4.671429  -2.977524  5.607610
H    -4.072448  -2.852330  3.190733
H    -4.972855  -1.585145  3.709190
N    -1.246819  1.942268  5.505119
C    -0.701588  3.240249  5.914762
H    -2.219063  1.749772  5.733788
H    -0.261007  3.168072  6.917950
H    -1.517767  3.968348  5.928715
H    0.071482  3.552996  5.206206
Hg    1.615415  -0.065167  3.126652
