34
Energy: -571606.889879 eV PBE+vdW (tier 2 basis)
C    0.008950  0.032792  0.035388
C    0.052310  -0.187478  1.523168
O    1.095765  -0.735447  1.977165
H    0.160287  -0.931854  -0.466869
H    0.847541  0.680628  -0.251161
H    -0.933400  0.474149  -0.307565
N    -1.018482  0.217148  2.233243
C    -1.429511  -0.018330  3.638699
C    -0.686547  0.923787  4.615591
O    0.471174  0.698338  5.077907
H    -1.730833  0.667555  1.666338
H    -2.480083  0.305204  3.652546
C    -1.430400  -1.494899  4.070478
C    -2.159186  -1.711010  5.403431
C    -2.158045  -3.172391  5.893603
C    -3.127625  -4.110110  5.162282
N    -4.501219  -3.838573  5.450181
H    -0.402482  -1.890108  4.149026
H    -1.901061  -2.066201  3.256738
H    -3.200476  -1.358126  5.319642
H    -1.684233  -1.096436  6.183320
H    -2.399682  -3.185731  6.966984
H    -1.147707  -3.599949  5.815441
H    -2.877527  -5.153460  5.470357
H    -2.991821  -4.104972  4.069330
H    -5.222952  -4.226524  4.847642
H    -4.786163  -3.701443  6.418067
N    -1.331675  2.020418  4.994959
C    -0.774578  3.027404  5.902807
H    -2.290917  2.146047  4.683837
H    -0.877603  2.703884  6.946641
H    -1.319798  3.964114  5.757750
H    0.286608  3.175469  5.679184
Hg    1.946500  -0.783802  4.106998
