34
Energy: -571606.8416 eV PBE+vdW (tier 2 basis)
C    -0.190815  1.240750  0.706002
C    -0.228652  0.342976  1.912698
O    0.590711  -0.615064  1.932136
H    -0.834055  2.122303  0.806920
H    -0.509501  0.660026  -0.170632
H    0.843662  1.557651  0.527316
N    -1.129971  0.640191  2.869605
C    -1.524043  -0.102758  4.085253
C    -0.366264  -0.156856  5.110389
O    0.367109  -1.176098  5.275633
H    -1.707994  1.448058  2.658261
H    -2.291694  0.535487  4.544529
C    -2.195057  -1.457151  3.801278
C    -2.934858  -2.037713  5.013315
C    -3.607357  -3.380602  4.683805
C    -4.365310  -3.993637  5.873855
N    -5.558757  -3.292722  6.221773
H    -1.464044  -2.191766  3.420163
H    -2.899198  -1.293477  2.972048
H    -3.700755  -1.322200  5.355181
H    -2.237828  -2.177573  5.854316
H    -2.852785  -4.114669  4.365704
H    -4.298065  -3.264953  3.833329
H    -3.731294  -4.075868  6.768507
H    -4.619093  -5.043609  5.591995
H    -6.253021  -3.095727  5.503911
H    -5.926280  -3.361313  7.167431
N    -0.164375  0.899225  5.896302
C    -0.946503  2.133679  5.993822
H    0.619894  0.793032  6.541198
H    -0.928792  2.688970  5.048049
H    -0.488473  2.759964  6.764312
H    -1.983163  1.932706  6.294628
Hg    1.135876  -2.322375  3.407676
