34
Energy: -571606.776019 eV PBE+vdW (tier 2 basis)
C    -2.718059  -3.472802  0.188431
C    -1.786514  -2.583949  0.960679
O    -0.615413  -2.434186  0.525153
H    -2.213319  -4.421900  -0.027632
H    -2.940012  -2.995942  -0.776532
H    -3.657170  -3.665864  0.719638
N    -2.259508  -1.997707  2.083876
C    -1.561450  -0.984340  2.867783
C    -0.393626  -1.575420  3.697986
O    0.793535  -1.211576  3.434647
H    -3.233856  -2.179180  2.310599
H    -1.049696  -0.308950  2.161815
C    -2.544044  -0.133477  3.699182
C    -3.346713  0.877964  2.856587
C    -2.608118  2.182142  2.500021
C    -2.585481  3.226583  3.631708
N    -3.867205  3.797948  3.894132
H    -1.967755  0.385252  4.479789
H    -3.236774  -0.797237  4.235241
H    -4.265428  1.128337  3.406067
H    -3.684691  0.396677  1.926041
H    -3.078891  2.635358  1.615171
H    -1.564984  1.987562  2.206159
H    -1.872352  4.028597  3.327477
H    -2.184252  2.825693  4.574289
H    -4.423242  4.165001  3.124504
H    -4.065836  4.206718  4.803498
N    -0.578301  -2.426311  4.703820
C    -1.809946  -2.901372  5.333026
H    0.294230  -2.709900  5.153859
H    -1.593503  -3.867820  5.800070
H    -2.599984  -3.051938  4.592916
H    -2.151603  -2.208496  6.113204
Hg    1.263407  -1.122508  1.146399
