34
Energy: -571606.765633 eV PBE+vdW (tier 2 basis)
C    -0.781936  1.478433  0.580956
C    -0.364640  0.728343  1.805246
O    0.726786  0.909809  2.405486
H    -0.107895  2.322872  0.415246
H    -1.813312  1.845745  0.659966
H    -0.718233  0.826026  -0.302532
N    -1.153381  -0.255291  2.315697
C    -2.230750  -0.969973  1.672635
C    -3.277958  -1.258367  2.815373
O    -2.942008  -1.992758  3.738528
H    -0.784826  -0.689668  3.168472
H    -2.672982  -0.332815  0.895727
C    -1.744444  -2.320134  1.073130
C    -2.856741  -3.139067  0.409509
C    -2.275887  -4.445076  -0.147319
C    -3.420991  -5.342110  -0.788766
N    -2.926285  -6.561454  -1.296270
H    -1.284345  -2.896379  1.888922
H    -0.951815  -2.082930  0.346662
H    -3.328736  -2.562186  -0.401060
H    -3.642302  -3.370003  1.145020
H    -1.794571  -5.031633  0.647248
H    -1.525591  -4.250940  -0.926101
H    -3.885602  -4.766845  -1.601881
H    -4.159991  -5.546521  -0.000313
H    -2.806153  -7.376156  -0.699463
H    -2.571581  -6.639462  -2.246077
N    -4.470876  -0.657977  2.684605
C    -5.571499  -0.883600  3.623648
H    -4.654333  -0.104931  1.854114
H    -6.209324  -1.715074  3.295966
H    -6.173948  0.028577  3.684468
H    -5.152423  -1.122288  4.606296
Hg    1.841868  3.003004  2.934818
