34
Energy: -571606.808076 eV PBE+vdW (tier 2 basis)
C    -0.456277  -1.055115  0.219932
C    -0.129914  -0.762734  1.652055
O    0.996985  -1.205331  2.062562
H    -1.447384  -0.694050  -0.075706
H    -0.412443  -2.143690  0.069109
H    0.315201  -0.614743  -0.425543
N    -1.026197  -0.072068  2.379587
C    -1.276663  0.045664  3.841090
C    -0.566045  1.192389  4.573408
O    0.693471  1.475840  4.511832
H    -1.807319  0.257600  1.818620
H    -2.332231  0.335893  3.871368
C    -1.166121  -1.288679  4.626328
C    -2.450712  -2.134229  4.555475
C    -3.606598  -1.733365  5.493516
C    -4.413158  -0.461454  5.201737
N    -3.876607  0.776371  5.822758
H    -0.934639  -1.056817  5.676804
H    -0.321946  -1.885806  4.250930
H    -2.175538  -3.166529  4.812041
H    -2.807856  -2.181900  3.513358
H    -3.251834  -1.712385  6.537490
H    -4.323510  -2.566336  5.459541
H    -5.441319  -0.618069  5.572946
H    -4.517409  -0.287940  4.119178
H    -4.538744  1.546604  5.687926
H    -3.790678  0.646077  6.835460
N    -1.335394  1.898453  5.367414
C    -0.860742  2.947459  6.270218
H    -2.351720  1.566392  5.443395
H    -0.718494  3.885465  5.717874
H    0.090979  2.661846  6.731723
H    -1.619627  3.104732  7.042259
Hg    1.946480  -0.106546  3.711315
