34
Energy: -571606.459376 eV PBE+vdW (tier 2 basis)
C    -0.377683  2.442785  -0.439351
C    -0.181223  1.860939  0.922359
O    0.796640  2.259524  1.620349
H    -0.904309  3.405807  -0.353282
H    -0.932538  1.771452  -1.102905
H    0.605994  2.662092  -0.872545
N    -1.010653  0.909338  1.412455
C    -2.471793  0.915313  1.311394
C    -2.964914  1.939662  2.363965
O    -2.309646  2.149812  3.421088
H    -0.681622  0.508071  2.292497
H    -2.754399  1.246822  0.302419
C    -2.992949  -0.515829  1.593992
C    -4.480562  -0.777663  1.316093
C    -4.874528  -0.941067  -0.166375
C    -4.557549  -2.333829  -0.750971
N    -5.395727  -3.366802  -0.244601
H    -2.779310  -0.746900  2.649356
H    -2.365093  -1.197282  0.999966
H    -5.096855  0.017057  1.763735
H    -4.768116  -1.688936  1.860150
H    -4.376540  -0.196241  -0.805518
H    -5.952432  -0.754058  -0.281869
H    -3.509054  -2.631566  -0.608341
H    -4.695792  -2.256550  -1.856678
H    -6.406901  -3.248603  -0.233575
H    -5.064281  -4.326725  -0.194616
N    -4.124138  2.562378  2.139350
C    -4.734162  3.527763  3.052562
H    -4.655561  2.298661  1.313354
H    -5.280769  4.273497  2.466679
H    -3.949883  4.009538  3.643176
H    -5.431054  3.024832  3.737149
Hg    0.127788  2.630339  3.858706
