34
Energy: -571606.772956 eV PBE+vdW (tier 2 basis)
C    0.982073  0.289946  0.898968
C    0.243843  -0.461992  1.963177
O    0.818906  -1.017043  2.956783
H    1.718956  -0.376367  0.429821
H    1.520919  1.132526  1.355416
H    0.316538  0.680586  0.122518
N    -1.080173  -0.574323  1.864932
C    -1.911610  -1.380962  2.759972
C    -3.005569  -1.981525  1.849299
O    -3.352303  -1.328078  0.857056
H    -1.559632  -0.257866  1.016267
H    -1.279460  -2.168307  3.193283
C    -2.553282  -0.554140  3.909500
C    -3.483278  0.579010  3.467685
C    -3.918077  1.525595  4.611398
C    -5.001408  0.960518  5.540300
N    -6.286230  0.870997  4.944068
H    -1.717392  -0.144531  4.497907
H    -3.071810  -1.266798  4.568343
H    -4.382047  0.179838  2.971565
H    -2.969781  1.202599  2.721329
H    -4.285516  2.465953  4.173953
H    -3.053214  1.802093  5.230864
H    -5.057215  1.660067  6.415269
H    -4.746320  -0.012244  5.987487
H    -6.991618  0.241367  5.319180
H    -6.634756  1.629402  4.360129
N    -3.549802  -3.155091  2.209181
C    -4.574404  -3.831405  1.418289
H    -3.120220  -3.669476  2.973633
H    -5.233811  -4.390055  2.090938
H    -4.119510  -4.532321  0.703949
H    -5.143392  -3.082491  0.858307
Hg    3.127097  -0.785160  3.446310
