34
Energy: -571608.113421 eV PBE+vdW (tier 2 basis)
C    0.352693  0.463303  1.014265
C    -0.425226  -0.391090  1.959352
O    0.246666  -1.287359  2.587459
H    0.859636  -0.180486  0.282913
H    1.136540  0.993729  1.572447
H    -0.275730  1.190571  0.488771
N    -1.746676  -0.172982  2.085984
C    -2.604799  -0.910404  3.010048
C    -3.020682  -2.286734  2.435574
O    -2.378898  -3.303458  2.805971
H    -2.140103  0.571782  1.514548
H    -1.916567  -1.160561  3.822698
C    -3.681892  -0.175732  3.812816
C    -3.908568  -1.000937  5.109473
C    -2.704022  -0.969133  6.095138
C    -2.232489  -2.267493  6.759699
N    -1.563957  -3.313773  5.873563
H    -4.626378  -0.060896  3.263675
H    -3.330832  0.836947  4.060421
H    -4.165806  -2.035985  4.831453
H    -4.798638  -0.613283  5.618259
H    -2.960384  -0.308070  6.935620
H    -1.823657  -0.470122  5.647783
H    -3.070628  -2.787891  7.247565
H    -1.496111  -2.020915  7.533063
H    -2.268564  -3.891588  5.398415
H    -1.008710  -3.946783  6.460158
N    -4.026883  -2.333869  1.569478
C    -4.500269  -3.557144  0.914749
H    -4.524748  -1.472559  1.360472
H    -3.750234  -4.341345  1.043035
H    -4.651122  -3.358658  -0.151822
H    -5.449954  -3.881952  1.358104
Hg    -0.442181  -2.581842  4.153522
