34
Energy: -571606.937881 eV PBE+vdW (tier 2 basis)
C    0.312386  -0.037062  0.262922
C    0.028233  0.176988  1.722357
O    0.869892  0.845001  2.382033
H    0.416420  0.941852  -0.224026
H    -0.470737  -0.612244  -0.243592
H    1.276580  -0.551435  0.160362
N    -1.107342  -0.354435  2.222312
C    -1.723776  -0.094701  3.528421
C    -1.180489  -1.085452  4.587326
O    -0.185845  -0.788187  5.315985
H    -1.665430  -0.889776  1.561569
H    -1.384083  0.897767  3.864717
C    -3.258825  -0.073359  3.398538
C    -3.803608  1.127051  2.598904
C    -3.913993  2.448895  3.383018
C    -5.165487  2.555684  4.274027
N    -6.377545  2.666201  3.525984
H    -3.687590  -0.085462  4.411530
H    -3.594685  -1.006081  2.913943
H    -4.796480  0.860182  2.210274
H    -3.176506  1.291919  1.710010
H    -3.917582  3.289718  2.673720
H    -3.033552  2.614342  4.022877
H    -5.037412  3.455506  4.919969
H    -5.264455  1.710509  4.971338
H    -7.261104  2.396524  3.950220
H    -6.450199  3.363114  2.787642
N    -1.762671  -2.267671  4.722201
C    -1.316225  -3.301571  5.662463
H    -2.614031  -2.444408  4.195988
H    -1.710257  -3.103583  6.667550
H    -0.222624  -3.309834  5.703857
H    -1.683385  -4.270198  5.312020
Hg    1.196212  0.962532  4.684919
