11
Energy: -597883.371647 eV PBE+vdW (tier 2 basis)
N    0.643364  -0.399800  0.053122
C    0.285224  -0.017468  1.446907
C    1.487870  -0.061171  2.376103
O    2.630272  -0.389898  1.963324
H    0.073463  -1.198881  -0.248869
H    0.398419  0.359949  -0.592885
H    -0.137948  0.998904  1.472495
H    -0.488099  -0.692129  1.846324
O    1.380274  0.238776  3.628698
H    0.481889  0.492853  3.933170
Pb    3.100271  -0.958136  -0.160390
