36
Energy: -175310.721839 eV PBE+vdW (tier 2 basis)
C    -1.144037  1.919920  -1.106115
C    -0.816862  0.561329  -0.600265
O    0.378866  0.205903  -0.403351
H    -2.193004  2.035811  -1.392567
H    -0.503946  2.117624  -1.978695
H    -0.864463  2.672820  -0.354376
N    -1.820682  -0.338301  -0.330111
C    -2.983332  -0.062100  0.523659
C    -2.509952  0.778790  1.732426
O    -1.379276  0.558930  2.270150
H    -1.499504  -1.305058  -0.303078
H    -3.759683  0.467627  -0.047590
C    -3.537221  -1.392631  1.104787
C    -3.670362  -2.602287  0.142518
C    -3.022187  -3.913955  0.650600
N    -1.666041  -4.192709  0.142053
C    -0.504483  -3.625809  0.525102
N    0.561929  -3.727566  -0.299729
N    -0.362543  -2.921469  1.660168
H    -4.514958  -1.159605  1.544837
H    -2.898719  -1.671317  1.955239
H    -3.283273  -2.377762  -0.862402
H    -4.737645  -2.804083  -0.011261
H    -3.625626  -4.766751  0.321192
H    -3.031553  -3.958761  1.749632
H    -1.605988  -4.913356  -0.572021
H    1.491054  -3.707386  0.107306
H    0.481423  -4.162400  -1.212585
H    -1.081058  -3.129974  2.352091
N    -3.340837  1.693375  2.206607
C    -3.107955  2.521066  3.393038
H    -4.219057  1.830336  1.711059
H    -3.911202  2.352777  4.119949
H    -3.099062  3.579528  3.107083
H    -2.147027  2.250391  3.835393
Cd    0.182213  -0.865569  1.565379
