36
Energy: -175309.14822 eV PBE+vdW (tier 2 basis)
C    -2.352839  1.190509  0.266091
C    -1.649794  1.046142  1.575353
O    -0.382044  1.182006  1.578877
H    -1.780358  1.863184  -0.380958
H    -3.381488  1.570505  0.383973
H    -2.385244  0.208159  -0.230204
N    -2.380463  0.765686  2.666601
C    -1.867011  0.684219  4.030854
C    -1.059333  -0.616670  4.273663
O    0.213288  -0.541467  4.391678
H    -3.410763  0.699188  2.555431
H    -1.112961  1.482061  4.156244
C    -2.945908  0.945582  5.099957
C    -3.383552  2.423561  5.268003
C    -4.810020  2.805194  4.804009
N    -4.946804  3.176702  3.400837
C    -5.186286  2.375753  2.320498
N    -5.347474  0.999893  2.573868
N    -5.179315  2.736571  1.073965
H    -2.517088  0.603120  6.052308
H    -3.818664  0.305193  4.922696
H    -2.662509  3.105035  4.792143
H    -3.343863  2.657042  6.340108
H    -5.130844  3.680232  5.383207
H    -5.524243  2.008342  5.059387
H    -4.843609  4.163631  3.184824
H    -5.884892  0.777465  3.411317
H    -5.777969  0.565272  1.756106
H    -5.024947  3.740569  0.939326
N    -1.619661  -1.810796  4.382031
C    -3.028293  -2.206848  4.340270
H    -0.946925  -2.559444  4.558537
H    -3.073380  -3.241959  3.987011
H    -3.590578  -1.582559  3.639848
H    -3.481014  -2.159524  5.338815
Cd    1.185739  0.859994  3.044779
