36
Energy: -175311.2121 eV PBE+vdW (tier 2 basis)
C    -0.198436  -0.178171  -0.106646
C    -0.232966  -0.227122  1.386570
O    0.833049  -0.060421  2.039187
H    0.461481  -0.977515  -0.471025
H    0.251471  0.771848  -0.423618
H    -1.185172  -0.286110  -0.569215
N    -1.429090  -0.451303  1.986403
C    -1.601059  -0.489511  3.435373
C    -1.061700  -1.809332  4.040099
O    0.075137  -1.790237  4.613756
H    -2.240774  -0.572951  1.387266
H    -0.900815  0.260873  3.822122
C    -2.964170  -0.003372  3.948995
C    -3.182749  1.520283  3.828256
C    -2.040301  2.449165  4.288573
N    -1.557351  2.201772  5.652801
C    -0.330134  1.749478  5.992670
N    -0.166611  1.170525  7.198071
N    0.741542  1.808815  5.174742
H    -3.023328  -0.302023  5.006402
H    -3.795500  -0.516897  3.447943
H    -4.100419  1.764050  4.382266
H    -3.393970  1.796780  2.784468
H    -2.384982  3.489540  4.218162
H    -1.181500  2.373456  3.610136
H    -2.216818  2.378568  6.407431
H    0.759729  1.173605  7.611607
H    -0.947885  0.990471  7.818576
H    0.673372  2.568896  4.497362
N    -1.728029  -2.952867  3.974534
C    -3.042869  -3.239274  3.398000
H    -1.240189  -3.736593  4.410727
H    -3.846811  -3.036776  4.116710
H    -3.071602  -4.300822  3.134245
H    -3.207761  -2.664498  2.481749
Cd    1.309362  -0.014640  4.213923
