36
Energy: -175308.655968 eV PBE+vdW (tier 2 basis)
C    -0.488926  -0.367023  -1.662260
C    -0.872083  -1.184375  -0.475573
O    -1.064113  -2.429371  -0.656722
H    -0.050868  0.605352  -1.427932
H    -1.359498  -0.237506  -2.322088
H    0.233919  -0.962995  -2.237852
N    -0.943545  -0.701376  0.799109
C    -1.701885  0.440577  1.338011
C    -3.108066  -0.108121  1.701123
O    -3.636701  -1.051658  1.036073
H    -0.893435  -1.466532  1.474352
H    -1.190315  0.742731  2.265058
C    -1.762483  1.659872  0.397375
C    -2.307379  2.948930  1.023248
C    -2.169644  4.177430  0.093483
N    -0.802623  4.602395  -0.163040
C    -0.002006  4.150928  -1.177970
N    1.284594  4.582181  -1.203488
N    -0.355844  3.283027  -2.111179
H    -2.350364  1.407154  -0.497228
H    -0.731055  1.842216  0.070074
H    -1.785395  3.166426  1.969118
H    -3.378613  2.854817  1.256686
H    -2.689966  5.026672  0.553606
H    -2.681467  3.994002  -0.862577
H    -0.406778  5.268168  0.494135
H    1.823271  4.348498  -2.030757
H    1.619109  5.348686  -0.631489
H    -1.371053  3.151453  -2.137425
N    -3.747096  0.474025  2.707834
C    -5.096640  0.138889  3.166839
H    -3.265089  1.220569  3.203101
H    -5.735625  1.028259  3.111855
H    -5.056781  -0.208756  4.206233
H    -5.508222  -0.644334  2.527260
Cd    -2.969045  -3.068744  0.285965
