36
Energy: -175310.334684 eV PBE+vdW (tier 2 basis)
C    -0.623714  2.176447  2.161794
C    -0.900363  0.742474  2.526626
O    -0.047607  0.324942  3.461029
H    -1.425553  2.604793  1.554558
H    0.333187  2.249789  1.627456
H    -0.514841  2.765267  3.081825
N    -1.889507  0.107692  1.953391
C    -2.402744  -1.166743  2.473644
C    -1.841248  -2.373315  1.696705
O    -0.673590  -2.848754  1.962196
H    -2.682674  1.054386  0.397048
H    -2.057640  -1.351399  3.516731
C    -3.947410  -1.127127  2.587832
C    -4.711354  -0.515776  1.397933
C    -4.911787  1.007115  1.549914
N    -5.197713  1.685691  0.287642
C    -4.258431  1.990852  -0.620353
N    -4.600583  2.667317  -1.728239
N    -2.989323  1.613429  -0.423111
H    -4.182963  -0.553879  3.496256
H    -4.305074  -2.145607  2.797507
H    -5.693939  -0.997418  1.305643
H    -4.189076  -0.702612  0.446709
H    -4.022208  1.468032  1.998638
H    -5.748802  1.216332  2.226392
H    -6.163256  1.896356  0.060605
H    -3.927774  2.860948  -2.459170
H    -5.522017  3.072351  -1.839175
H    -2.269174  1.939309  -1.055819
N    -2.541000  -2.959086  0.744742
C    -2.072510  -4.114548  -0.029266
H    -3.473031  -2.603240  0.558003
H    -2.855542  -4.393968  -0.738247
H    -1.866617  -4.959261  0.638561
H    -1.156477  -3.860415  -0.574748
Cd    0.367178  -1.692175  3.403087
