36
Energy: -175309.140885 eV PBE+vdW (tier 2 basis)
C    0.370630  -0.387709  0.133216
C    0.031081  -0.196773  1.575574
O    0.943233  0.174442  2.411319
H    0.875226  0.517555  -0.230680
H    -0.508800  -0.601811  -0.481566
H    1.092550  -1.210654  0.026773
N    -1.225455  -0.388984  1.962516
C    -1.760257  -0.187305  3.312983
C    -0.956584  -0.888865  4.416252
O    -0.181291  -1.876885  4.172996
H    -1.903817  -0.706117  1.186064
H    -1.701287  0.892659  3.532457
C    -3.251684  -0.651951  3.381013
C    -4.355615  0.420328  3.297718
C    -4.300077  1.454367  2.149201
N    -3.791922  0.936774  0.883313
C    -4.086658  -0.299748  0.340160
N    -5.389027  -0.667927  0.330794
N    -3.050053  -1.010410  -0.038294
H    -3.411607  -1.199254  4.319505
H    -3.387039  -1.411936  2.601296
H    -4.405583  0.995681  4.233835
H    -5.303730  -0.131927  3.246510
H    -3.643759  2.295634  2.405624
H    -5.302080  1.895714  2.029406
H    -2.893136  1.291313  0.577464
H    -6.115785  0.039940  0.313933
H    -5.649179  -1.580418  -0.025569
H    -3.294405  -1.876431  -0.525431
N    -1.118548  -0.486841  5.673326
C    -1.993250  0.555174  6.211423
H    -0.615663  -1.054403  6.356265
H    -1.568482  0.906782  7.156472
H    -3.001491  0.165057  6.402947
H    -2.056053  1.405704  5.523840
Cd    1.846233  -1.417937  3.522718
