36
Energy: -175311.916354 eV PBE+vdW (tier 2 basis)
C    -0.434547  1.661454  0.575076
C    -0.297395  0.764277  1.765348
O    0.865090  0.453492  2.150700
H    -1.472958  1.887514  0.311576
H    0.060384  1.187243  -0.283122
H    0.101802  2.598575  0.774933
N    -1.438782  0.341341  2.351911
C    -1.621105  -0.576778  3.495699
C    -1.093199  0.078072  4.790445
O    0.138067  0.101326  5.075098
H    -2.292978  0.687541  1.925480
H    -2.708583  -0.681782  3.604029
C    -1.036657  -1.981048  3.203633
C    -0.854076  -2.920376  4.412558
C    0.297753  -3.943807  4.205174
N    1.367041  -3.881304  5.210466
C    2.617888  -3.393835  5.031060
N    3.607502  -3.950709  5.754625
N    2.874327  -2.398603  4.170845
H    -0.081907  -1.873372  2.659539
H    -1.687283  -2.447232  2.450579
H    -1.792498  -3.453301  4.608393
H    -0.636714  -2.351542  5.326782
H    0.764347  -3.819524  3.218629
H    -0.095779  -4.966878  4.229392
H    1.241337  -4.467740  6.029841
H    3.524535  -4.883404  6.143867
H    4.497407  -3.480815  5.873456
H    3.861746  -2.332434  3.930817
N    -1.997295  0.623067  5.595756
C    -1.693958  1.327025  6.842828
H    -2.974350  0.570174  5.320642
H    -2.300362  0.908137  7.653784
H    -1.926654  2.393643  6.734218
H    -0.632919  1.206427  7.071834
Cd    1.671778  -0.740824  3.753106
