36
Energy: -175310.958288 eV PBE+vdW (tier 2 basis)
C    -0.139517  1.643417  0.601523
C    -0.448113  0.623985  1.646696
O    0.497659  0.367288  2.501818
H    0.106839  2.601051  1.078963
H    -0.965690  1.783682  -0.102218
H    0.754600  1.321194  0.049252
N    -1.610633  0.016621  1.623346
C    -2.132304  -1.117302  2.383177
C    -3.353314  -1.544443  1.493613
O    -3.723614  -0.759121  0.617101
H    -2.315046  0.233755  0.875575
H    -1.377921  -1.918744  2.398339
C    -2.564302  -0.744934  3.834533
C    -1.806195  -1.504295  4.935154
C    -1.780127  -0.753450  6.280301
N    -0.809629  -1.283511  7.235232
C    0.452951  -0.841342  7.409010
N    1.085489  -1.170860  8.547137
N    1.072474  -0.081696  6.488018
H    -3.643823  -0.905295  3.956149
H    -2.430102  0.341885  3.953710
H    -0.766635  -1.725820  4.604811
H    -2.224797  -2.509304  5.083959
H    -2.769256  -0.794455  6.754207
H    -1.569754  0.319024  6.137593
H    -1.137830  -1.988101  7.888228
H    2.090049  -1.072883  8.639645
H    0.579115  -1.482302  9.369087
H    1.910662  0.375269  6.841681
N    -3.949693  -2.723117  1.731172
C    -3.593389  -3.753856  2.696216
H    -4.755365  -2.897136  1.132969
H    -2.505950  -3.820419  2.822570
H    -3.932450  -4.722148  2.314464
H    -4.071186  -3.588194  3.673081
Cd    0.728403  0.066678  4.473217
