36
Energy: -175308.80636 eV PBE+vdW (tier 2 basis)
C    -1.443714  -2.595770  0.726301
C    -0.968285  -1.841963  1.925829
O    0.262417  -1.917821  2.233978
H    -0.958693  -2.185594  -0.170377
H    -2.530173  -2.550418  0.607102
H    -1.126801  -3.643093  0.810235
N    -1.861420  -1.129341  2.635921
C    -1.444503  -0.266398  3.732818
C    -0.860312  -1.049072  4.937085
O    0.332859  -0.759320  5.305966
H    -2.805350  -1.009832  2.227556
H    -0.554826  0.281009  3.367108
C    -2.399170  0.898970  4.102210
C    -3.703325  0.750649  4.911079
C    -5.026787  0.502673  4.152117
N    -5.308149  -0.877834  3.808077
C    -5.182288  -1.533248  2.611848
N    -4.681439  -0.783726  1.534996
N    -5.419523  -2.808275  2.625117
H    -2.601284  1.434257  3.160543
H    -1.755500  1.581061  4.676505
H    -3.601793  0.029505  5.732892
H    -3.841952  1.720710  5.410077
H    -5.068334  1.138547  3.256619
H    -5.848728  0.844756  4.796063
H    -5.744004  -1.466069  4.515261
H    -4.861256  -1.230652  0.637304
H    -4.979903  0.191451  1.495333
H    -5.379103  -3.245026  1.700076
N    -1.504648  -1.988803  5.608843
C    -2.822276  -2.585338  5.411204
H    -0.950221  -2.378971  6.374930
H    -2.702070  -3.672630  5.324505
H    -3.290552  -2.213187  4.501499
H    -3.463890  -2.377403  6.276540
Cd    1.675537  -0.901822  3.584268
