36
Energy: -175310.84165 eV PBE+vdW (tier 2 basis)
C    0.328562  1.428576  0.641726
C    0.448814  0.716286  1.943388
O    1.593166  0.807663  2.554723
H    1.232237  1.267204  0.042850
H    0.270925  2.509084  0.846498
H    -0.557136  1.130945  0.073341
N    -0.534950  0.025235  2.489642
C    -1.912752  -0.246623  2.082645
C    -2.631721  -0.318041  3.464427
O    -1.923311  -0.538940  4.467218
H    -0.528634  -0.225172  3.514305
H    -2.303710  0.585721  1.482824
C    -2.072315  -1.574811  1.299925
C    -1.966390  -2.903169  2.087705
C    -0.626350  -3.651277  2.078044
N    0.461028  -3.075217  2.896296
C    0.601083  -3.197557  4.246851
N    -0.214999  -3.993057  4.940002
N    1.564690  -2.469247  4.840577
H    -1.369407  -1.563747  0.452777
H    -3.071763  -1.536951  0.844640
H    -2.677283  -3.604426  1.628551
H    -2.317919  -2.775559  3.121895
H    -0.229277  -3.699485  1.056141
H    -0.795060  -4.701200  2.367132
H    1.345731  -2.972423  2.407948
H    -0.246492  -3.958889  5.952991
H    -0.760164  -4.718059  4.486341
H    1.812059  -2.731779  5.792599
N    -3.957181  -0.187477  3.472042
C    -4.784391  -0.264860  4.677137
H    -4.425033  0.023905  2.595147
H    -5.493633  -1.097256  4.596207
H    -5.341511  0.670356  4.805939
H    -4.131496  -0.419732  5.539486
Cd    1.916290  -0.618095  4.008139
