36
Energy: -175308.523156 eV PBE+vdW (tier 2 basis)
C    -0.191031  0.275358  0.061811
C    -0.115262  0.160021  1.548092
O    0.999057  0.374197  2.116475
H    0.013987  -0.705785  -0.394228
H    0.607722  0.950847  -0.265239
H    -1.156874  0.643128  -0.293127
N    -1.200393  -0.115503  2.326752
C    -2.175397  -1.203345  2.155058
C    -1.420523  -2.532316  2.436749
O    -0.158738  -2.584571  2.314943
H    -0.992015  0.060617  3.310733
H    -2.906939  -1.053203  2.963661
C    -2.956625  -1.224122  0.826312
C    -3.834364  0.020556  0.640441
C    -4.604955  0.046887  -0.695612
N    -5.576761  -1.027267  -0.858930
C    -6.798538  -1.134536  -0.244410
N    -7.227845  -0.114611  0.547188
N    -7.568669  -2.199972  -0.310655
H    -3.594156  -2.118981  0.836139
H    -2.270259  -1.360839  -0.020184
H    -3.224763  0.935297  0.680462
H    -4.543497  0.095575  1.478954
H    -3.907805  -0.027500  -1.540509
H    -5.101342  1.024168  -0.806741
H    -5.374398  -1.750438  -1.539787
H    -8.171121  -0.222738  0.909157
H    -6.892158  0.833960  0.428869
H    -7.216845  -2.909768  -0.962601
N    -2.094269  -3.619253  2.799902
C    -3.532393  -3.810862  2.985248
H    -1.504295  -4.439712  2.945338
H    -3.684993  -4.496644  3.825352
H    -3.989497  -4.250830  2.089083
H    -4.028954  -2.865156  3.222780
Cd    1.679709  -1.495453  3.130213
