36
Energy: -175309.209153 eV PBE+vdW (tier 2 basis)
C    -0.197662  -2.468698  0.625017
C    -0.202162  -1.419184  1.690919
O    0.851728  -0.737310  1.865316
H    -1.134204  -3.034391  0.574407
H    0.638866  -3.157374  0.799577
H    -0.016034  -1.984211  -0.344433
N    -1.328749  -1.246763  2.406747
C    -1.571275  -0.160536  3.356580
C    -0.843108  -0.409536  4.697306
O    0.189030  0.290926  4.983737
H    -2.123052  -1.827969  2.153417
H    -1.055889  0.724362  2.951848
C    -3.075678  0.233784  3.501199
C    -4.126421  -0.659995  2.827012
C    -5.566386  -0.119584  3.078988
N    -6.403469  -0.942536  3.940189
C    -6.355370  -0.907308  5.308000
N    -7.439054  -1.392161  5.969059
N    -5.262795  -0.435561  5.875950
H    -3.171313  1.244034  3.082987
H    -3.334937  0.322326  4.564845
H    -4.091312  -1.695225  3.196489
H    -3.962300  -0.692225  1.739427
H    -6.095869  -0.043001  2.123245
H    -5.513638  0.893789  3.499990
H    -7.191027  -1.409597  3.504977
H    -7.415220  -1.493704  6.975507
H    -8.335788  -1.534037  5.518605
H    -5.383181  -0.364868  6.890987
N    -1.247872  -1.312770  5.576310
C    -2.419664  -2.186470  5.538362
H    -0.667478  -1.354475  6.414906
H    -2.315488  -2.913453  6.348494
H    -2.460492  -2.738638  4.592562
H    -3.354511  -1.616937  5.683086
Cd    1.563634  0.715158  3.345129
