36
Energy: -175308.952961 eV PBE+vdW (tier 2 basis)
C    -0.880838  -1.303682  0.475863
C    -0.434456  -0.671533  1.746441
O    0.674574  -1.021648  2.266354
H    -0.187267  -1.048286  -0.337826
H    -1.905188  -1.038513  0.200663
H    -0.809090  -2.394166  0.604862
N    -1.194422  0.258872  2.378230
C    -1.839902  1.411563  1.752527
C    -0.751969  2.476903  1.438028
O    0.440242  2.416787  1.918446
H    -0.933842  0.410604  3.355264
H    -2.268319  1.095940  0.788478
C    -2.939994  1.971550  2.679652
C    -4.234553  1.150724  2.782905
C    -5.059419  1.004035  1.477874
N    -5.167376  2.256375  0.730116
C    -4.269595  2.630432  -0.241725
N    -3.784032  1.629130  -1.053657
N    -3.758164  3.830312  -0.374571
H    -3.170220  2.994620  2.356894
H    -2.514211  2.086329  3.689966
H    -4.859064  1.635901  3.546802
H    -4.035365  0.137219  3.162891
H    -6.067724  0.650497  1.731614
H    -4.621198  0.245831  0.820004
H    -5.600600  3.031738  1.227422
H    -3.285516  1.992870  -1.862618
H    -4.433249  0.884678  -1.294830
H    -4.191522  4.518047  0.249685
N    -1.082076  3.479419  0.655331
C    -0.165748  4.561439  0.281591
H    -2.056357  3.554835  0.266705
H    -0.684724  5.205145  -0.433481
H    0.740425  4.155420  -0.182614
H    0.118687  5.148810  1.163099
Cd    1.689125  0.866835  2.804310
