36
Energy: -175309.616917 eV PBE+vdW (tier 2 basis)
C    0.241185  1.387430  0.390127
C    -0.232180  1.287142  1.796314
O    0.461957  1.806021  2.738676
H    0.304464  2.439221  0.078297
H    -0.368373  0.812930  -0.312691
H    1.272443  1.002203  0.366239
N    -1.386876  0.648176  2.106210
C    -2.677576  0.847270  1.415956
C    -3.557480  1.743955  2.325261
O    -3.001053  2.778808  2.969082
H    -1.457731  0.369594  3.086182
H    -2.457147  1.457392  0.526303
C    -3.340800  -0.447105  0.945976
C    -3.747664  -1.441256  2.044097
C    -4.772642  -2.481352  1.526474
N    -6.069444  -2.484821  2.219816
C    -7.088732  -1.645103  1.975072
N    -8.341831  -2.039710  2.249895
N    -6.864227  -0.434660  1.444988
H    -2.658967  -0.935323  0.234246
H    -4.220300  -0.149766  0.358033
H    -4.189707  -0.911947  2.899461
H    -2.861905  -1.966172  2.427178
H    -4.381322  -3.498492  1.630235
H    -4.965544  -2.326578  0.455400
H    -6.273323  -3.280715  2.815080
H    -9.099786  -1.371838  2.326914
H    -8.578562  -3.020409  2.346861
H    -7.652152  0.090707  1.082621
N    -4.823977  1.551777  2.350021
C    -5.691387  2.397923  3.159806
H    -6.006801  0.110868  1.643702
H    -5.886310  3.347447  2.639122
H    -5.257081  2.634359  4.140120
H    -6.653364  1.892842  3.303897
Cd    -1.084473  2.964539  3.785696
