21
Energy: -169053.0302057  eV PBE+vdW (tier 2 basis)
N    0.298406  -0.393294  -0.200551
C    0.025933  -0.292676  1.288310
C    1.267463  0.134466  2.090707
O    1.303478  0.042775  3.288764
H    1.088726  -1.020790  -0.403028
H    0.532294  0.523692  -0.603896
H    -0.713846  0.515256  1.397497
C    -0.558483  -1.605571  1.828647
C    -1.842357  -2.014716  1.192637
N    -2.108919  -1.711674  -0.131844
C    -2.964292  -2.631079  1.758602
C    -3.334968  -2.127317  -0.363876
N    -3.925827  -2.645169  0.793922
H    -0.665437  -1.491746  2.916493
H    0.177312  -2.424059  1.702412
H    -3.147945  -2.940873  2.782001
H    -3.866893  -2.022521  -1.305553
H    -0.581375  -0.785551  -0.636568
O    2.226257  0.620650  1.279823
H    2.987415  0.922441  1.820729
Cd    -5.542942  -4.042245  0.586769
