21
Energy: -169052.5668184  eV PBE+vdW (tier 2 basis)
N    0.591493  -0.182805  -1.093691
C    -0.103437  -0.180235  0.234521
C    0.904123  -0.213546  1.423302
O    2.061686  0.398993  1.318699
H    0.857534  -1.134202  -1.374494
H    -0.009128  0.187089  -1.837751
H    -0.619188  0.790478  0.304071
C    -1.142615  -1.338261  0.341704
C    -2.260360  -1.163419  1.319013
N    -3.486552  -1.575719  1.084871
C    -2.294427  -0.632821  2.712864
C    -4.308377  -1.337125  2.244424
N    -3.647264  -0.786755  3.183803
H    -0.611133  -2.257893  0.647747
H    -1.573869  -1.531459  -0.650978
H    -1.958780  0.416369  2.799795
H    -5.359802  -1.620101  2.240503
H    -3.816889  -2.019891  0.224053
O    0.571332  -0.762661  2.458970
H    -1.575710  -1.178496  3.356586
Cd    2.566361  0.996463  -0.616011
