21
Energy: -169052.5573375  eV PBE+vdW (tier 2 basis)
N    0.662805  0.246144  0.824014
C    0.463714  -0.462601  2.121588
C    1.738884  -1.253718  2.516436
O    2.833492  -1.106544  1.952724
H    0.172509  1.147007  0.827331
H    0.253595  -0.326677  0.066798
H    0.374113  0.304616  2.908255
C    -0.844999  -1.296554  2.113735
C    -0.991763  -2.143389  0.887502
N    -2.201683  -2.547467  0.389361
C    -0.042049  -2.792656  0.064638
C    -1.959914  -3.370510  -0.683714
N    -0.658724  -3.533489  -0.880053
H    -1.678695  -0.581544  2.179277
H    -0.940024  -1.907794  3.029153
H    1.038886  -2.834240  0.190316
H    -2.755827  -3.797820  -1.287867
H    -3.122883  -2.278254  0.730040
O    1.694014  -2.081940  3.524552
H    0.815884  -2.161505  3.949351
Cd    2.941667  0.435935  0.354563
