21
Energy: -169052.6768875  eV PBE+vdW (tier 2 basis)
N    -0.011708  1.037948  0.657098
C    0.093324  -0.265127  1.160894
C    1.647951  -0.551020  1.616655
O    1.980041  -0.090952  2.736782
H    -0.018369  1.821686  1.303517
H    0.335820  1.250382  -0.274565
H    -0.459595  -0.329641  2.107962
C    -0.376976  -1.297333  0.118351
C    -0.543597  -2.749326  0.620241
N    -1.743303  -3.006187  1.424540
C    -0.788667  -3.752119  -0.469938
C    -2.449424  -3.953697  0.853152
N    -1.890585  -4.428512  -0.313252
H    0.341155  -1.320795  -0.712769
H    -1.337726  -0.949084  -0.284735
H    -0.120345  -3.918059  -1.317054
H    -3.386085  -4.335415  1.261633
H    -1.985972  -2.552205  2.304901
O    2.412339  -1.133475  0.807811
H    0.347341  -3.072659  1.194051
Cd    4.160380  -0.645408  2.293723
