21
Energy: -169052.6281775  eV PBE+vdW (tier 2 basis)
N    0.523791  -0.170403  0.296731
C    0.033558  0.022938  1.683940
C    1.209891  0.173511  2.667780
O    2.336827  -0.297404  2.445656
H    -0.180548  -0.711359  -0.238312
H    0.650746  0.728357  -0.183654
H    -0.588013  0.930090  1.729483
C    -0.834313  -1.208785  2.115170
C    -1.877697  -1.551494  1.108821
N    -3.169650  -1.098197  1.111353
C    -1.807924  -2.398872  -0.025098
C    -3.803997  -1.649438  0.020160
N    -2.990532  -2.434818  -0.674178
H    -1.270059  -1.011505  3.104118
H    -0.173398  -2.083864  2.239904
H    -0.978052  -3.039238  -0.320663
H    -4.844449  -1.441338  -0.216702
H    -3.610680  -0.498855  1.805621
O    1.011088  0.746234  3.825568
H    0.124155  1.142170  3.943208
Cd    2.619234  -1.198862  0.429315
