21
Energy: -169053.6129550  eV PBE+vdW (tier 2 basis)
N    -0.159792  -0.160300  0.238458
C    -0.553639  0.459312  1.570267
C    0.749285  0.647822  2.374298
O    0.780976  1.541381  3.265627
H    -0.955702  -0.595260  -0.250229
H    0.239010  0.547969  -0.397520
H    -1.033837  1.418768  1.351411
C    -1.551238  -0.467602  2.392647
C    -0.876525  -1.183907  3.525260
N    -0.187114  -2.390646  3.434153
C    -0.405425  -0.601078  4.676539
C    0.716402  -2.461411  4.430602
N    0.642976  -1.359859  5.204305
H    -2.072396  -1.151803  1.706689
H    -2.325028  0.191418  2.805092
H    -0.718897  0.331735  5.134979
H    1.381005  -3.304205  4.594531
H    -0.377246  -3.145642  2.777855
O    1.639403  -0.243680  2.217773
H    0.582993  -0.863109  0.408197
Cd    2.156971  0.178764  4.488729
