21
Energy: -169052.9635214  eV PBE+vdW (tier 2 basis)
N    -0.539933  -2.639654  3.123169
C    0.040892  -1.402908  2.754093
C    1.652662  -1.450839  2.866453
O    2.273983  -1.761188  1.815475
H    -2.517893  0.320915  1.419773
H    -0.426712  -2.945433  4.088182
H    -0.140827  -1.220854  1.687478
C    -0.475996  -0.232840  3.618407
C    -1.941999  0.001413  3.488369
N    -2.695669  0.523650  4.425680
C    -2.857553  -0.212637  2.327384
C    -4.046940  0.669549  3.934430
N    -4.161973  0.254290  2.737217
H    0.026985  0.700282  3.306189
H    -0.198535  -0.383804  4.672229
H    -2.904970  -1.278812  2.036968
H    -4.820566  1.090604  4.574575
H    -2.384694  0.795648  5.362167
O    2.186261  -1.234152  3.985700
H    -0.454704  -3.405341  2.458054
Cd    4.216180  -1.736890  2.994006
