21
Energy: -169052.9448809  eV PBE+vdW (tier 2 basis)
N    0.159833  -2.419475  2.099207
C    1.389012  -2.353935  1.219324
C    2.220771  -1.115189  1.599071
O    1.898581  -0.453588  2.632770
H    -0.088894  -3.390422  2.347954
H    0.321347  -1.892895  2.972881
H    2.030575  -3.221194  1.430572
C    0.847429  -2.378478  -0.218103
C    -0.539672  -1.681311  -0.157929
N    -1.602656  -2.398866  -0.847984
C    -1.039470  -1.843384  1.310471
C    -2.391590  -3.029942  0.055625
N    -2.104350  -2.806782  1.311449
H    0.720178  -3.422973  -0.532081
H    1.544239  -1.904564  -0.916413
H    -1.329426  -0.909737  1.812551
H    -3.202989  -3.684655  -0.263537
H    -1.702428  -2.459907  -1.858204
O    3.226582  -0.849105  0.875609
H    -0.492774  -0.637880  -0.491774
Cd    3.801703  0.827284  2.259542
