21
Energy: -169052.9052716  eV PBE+vdW (tier 2 basis)
N    -0.692690  0.183244  1.849439
C    0.496841  -0.580517  1.646465
C    1.758382  0.354756  1.312187
O    1.758831  1.013607  0.238601
H    -0.757307  0.652595  2.751863
H    -0.939086  0.819491  1.090217
H    0.765286  -1.078751  2.586175
C    0.363687  -1.609131  0.504894
C    -0.656636  -2.726308  0.831727
N    -2.051302  -2.292874  0.892525
C    -0.796076  -3.806046  -0.202088
C    -2.761795  -3.010731  0.058492
N    -2.018592  -3.951005  -0.627015
H    1.333351  -2.097124  0.334974
H    0.081437  -1.107806  -0.431741
H    0.021593  -4.434884  -0.558911
H    -3.835983  -2.886968  -0.082142
H    -2.372873  -1.524030  1.485234
O    2.675521  0.391246  2.179359
H    -0.395785  -3.204953  1.797400
Cd    3.764196  1.920187  0.917346
