21
Energy: -169052.6733775  eV PBE+vdW (tier 2 basis)
N    0.867794  -0.717217  -1.021560
C    -0.152468  -0.359731  0.010685
C    0.452407  0.234257  1.318891
O    1.598569  0.861348  1.303263
H    1.202942  -1.680386  -0.899904
H    0.486465  -0.659210  -1.971408
H    -0.750795  0.456553  -0.424687
C    -1.066060  -1.561475  0.377869
C    -2.041165  -1.298786  1.484286
N    -3.069661  -0.478198  1.445701
C    -2.196355  -2.064039  2.760184
C    -3.835146  -0.620846  2.660216
N    -3.355825  -1.518484  3.423598
H    -0.438154  -2.409703  0.686696
H    -1.627197  -1.882700  -0.514151
H    -1.301418  -2.002684  3.401911
H    -4.714274  -0.001317  2.828936
H    -3.304697  0.171051  0.693851
O    -0.222581  0.139214  2.334833
H    -2.343971  -3.144107  2.559918
Cd    2.627590  0.732460  -0.516128
