21
Energy: -169052.6537210  eV PBE+vdW (tier 2 basis)
N    -0.289010  1.174468  1.754931
C    -0.212245  -0.223991  1.856812
C    1.368925  -0.657140  1.904379
O    1.937629  -0.973985  0.829652
H    -0.073864  1.629469  0.871256
H    -0.111426  1.737640  2.582003
H    -0.596220  -0.535882  2.837196
C    -0.961831  -0.901257  0.691077
C    -1.386054  -2.373156  0.938937
N    -2.216096  -2.896209  -0.149476
C    -0.330870  -3.435866  0.941215
C    -1.680998  -3.997977  -0.612576
N    -0.517903  -4.356862  0.039572
H    -0.370745  -0.841611  -0.232337
H    -1.883240  -0.321040  0.545783
H    0.504041  -3.486532  1.639671
H    -2.112378  -4.583240  -1.425487
H    -3.087408  -2.477207  -0.478987
O    1.927264  -0.562269  3.026052
H    -1.966255  -2.442350  1.881017
Cd    3.953685  -0.952003  2.034312
