21
Energy: -169052.9777932  eV PBE+vdW (tier 2 basis)
N    -0.270085  -1.633558  4.937551
C    0.011634  -1.456213  3.564091
C    1.596142  -1.565362  3.277940
O    2.329584  -0.584159  3.565667
H    -2.883596  -1.065911  4.613718
H    0.153395  -0.979382  5.593901
H    -0.428043  -2.282894  2.993269
C    -0.470115  -0.084183  3.009292
C    -1.951206  0.058755  3.013028
N    -2.676218  0.368724  1.962651
C    -2.928325  -0.070401  4.132903
C    -4.066401  0.444157  2.340151
N    -4.234777  0.192466  3.577269
H    -0.073472  0.067485  1.996626
H    -0.044386  0.715298  3.639370
H    -2.708337  0.634492  4.956804
H    -4.824288  0.691968  1.598768
H    -2.319808  0.542820  1.019352
O    2.005775  -2.670310  2.830394
H    -0.274331  -2.590353  5.284294
Cd    4.137857  -1.904439  2.988962
