21
Energy: -169052.6608953  eV PBE+vdW (tier 2 basis)
N    0.215025  0.719032  -1.034192
C    -0.382486  0.364555  0.283828
C    0.711697  0.192084  1.367171
O    1.894424  0.550249  1.215632
H    0.255956  -0.099093  -1.652560
H    -0.357596  1.418341  -1.516423
H    -0.977081  1.234774  0.607620
C    -1.304679  -0.875104  0.161409
C    -2.241906  -1.055644  1.315662
N    -3.014818  -2.175398  1.473305
C    -2.673955  -0.185791  2.350970
C    -3.823645  -1.975001  2.566139
N    -3.636909  -0.774048  3.094065
H    -0.687122  -1.777369  0.017966
H    -1.902752  -0.759158  -0.761461
H    -2.384648  0.847883  2.532662
H    -4.496545  -2.740595  2.944230
H    -2.969395  -3.031758  0.924347
O    0.385326  -0.330342  2.510724
H    -0.579632  -0.589775  2.566623
Cd    2.436741  1.474160  -0.710716
