21
Energy: -169052.8042416  eV PBE+vdW (tier 2 basis)
N    0.682881  0.352278  0.091627
C    0.461046  0.231497  1.470280
C    1.682542  -0.622896  2.145448
O    1.524906  -1.855455  2.333217
H    1.367646  1.027257  -0.237398
H    0.540658  -0.448636  -0.518855
H    0.539273  1.220748  1.939929
C    -0.917911  -0.427677  1.742296
C    -1.458284  -0.268160  3.114558
N    -2.704314  0.040413  3.386527
C    -0.808741  -0.457981  4.447665
C    -2.898691  0.061888  4.816280
N    -1.826683  -0.214681  5.445239
H    -0.841613  -1.511970  1.543137
H    -1.625526  -0.013481  1.011165
H    -0.399775  -1.480184  4.549942
H    -3.876384  0.298136  5.233664
H    -3.436286  0.231868  2.696386
O    2.742271  0.017994  2.361152
H    0.049547  0.221452  4.603693
Cd    3.810844  -1.933197  2.872395
