21
Energy: -169052.8002262  eV PBE+vdW (tier 2 basis)
N    1.005099  0.234048  0.775074
C    0.510481  -0.280488  1.968846
C    1.385712  -1.526652  2.621452
O    2.284711  -2.058992  1.940417
H    0.938985  -0.316095  -0.078534
H    1.818204  0.843228  0.808002
H    0.603156  0.484231  2.754177
C    -0.972962  -0.745113  1.815712
C    -1.860463  -0.634179  3.003893
N    -1.543780  -0.850626  4.257693
C    -3.306794  -0.263648  3.016389
C    -2.710212  -0.648247  5.083457
N    -3.729117  -0.318724  4.394780
H    -1.030796  -1.785068  1.447493
H    -1.413294  -0.131263  1.017661
H    -3.922954  -0.929119  2.381717
H    -2.650479  -0.778920  6.162505
H    -0.609583  -1.156138  4.566107
O    1.099440  -1.846121  3.810832
H    -3.473493  0.747768  2.596521
Cd    2.902136  -3.386883  3.681806
