21
Energy: -169052.6136863  eV PBE+vdW (tier 2 basis)
N    0.287249  0.024886  0.325300
C    -0.215478  0.037626  1.724594
C    0.868553  0.526639  2.714376
O    2.073831  0.570486  2.439025
H    -0.066757  -0.801838  -0.173239
H    -0.047401  0.841535  -0.196944
H    -1.058513  0.745248  1.797296
C    -0.696483  -1.376487  2.130032
C    -1.856213  -1.802535  1.283426
N    -2.335287  -3.080078  1.248484
C    -2.733776  -1.075443  0.434990
C    -3.430529  -3.090762  0.409067
N    -3.676113  -1.886039  -0.088434
H    -0.978283  -1.387899  3.196311
H    0.140125  -2.089240  2.039424
H    -2.738891  -0.008000  0.226600
H    -3.993638  -3.996297  0.197443
H    -1.968893  -3.886838  1.750141
O    0.508440  0.878806  3.921137
H    -0.456952  0.876585  4.082744
Cd    2.662189  0.192721  0.311213
