21
Energy: -169053.6681790  eV PBE+vdW (tier 2 basis)
N    1.265903  -0.684069  0.883628
C    -0.014412  -0.153150  1.411041
C    0.319539  0.891132  2.494988
O    1.310169  0.760734  3.227490
H    1.098138  -1.449873  0.222117
H    1.776518  0.039126  0.364056
H    -0.605486  0.311319  0.606570
C    -0.899742  -1.302487  2.019494
C    -0.356404  -1.974842  3.246441
N    -0.847391  -1.802055  4.492772
C    0.742385  -2.886406  3.432983
C    -0.106896  -2.574711  5.385475
N    0.846208  -3.227394  4.782563
H    -1.047000  -2.052282  1.226515
H    -1.896047  -0.890012  2.228245
H    1.100924  -3.590159  2.674822
H    -0.332332  -2.597987  6.449295
H    -1.646790  -1.222004  4.750791
O    -0.488614  1.899181  2.709404
H    -1.198500  2.000463  2.042943
Cd    2.310751  -1.247991  2.918599
