21
Energy: -169052.4602298  eV PBE+vdW (tier 2 basis)
N    0.782961  0.997005  1.774505
C    0.519965  -0.483291  1.797596
C    1.819668  -1.312929  1.560189
O    2.980107  -0.861538  1.976859
H    0.056677  1.513574  2.281128
H    0.777990  1.355949  0.812202
H    0.199791  -0.713572  2.826964
C    -0.581880  -0.884368  0.783692
C    -1.369936  -2.176305  1.125829
N    -2.206781  -2.611956  0.002145
C    -0.640739  -3.472423  1.377127
C    -1.947293  -3.871761  -0.262618
N    -1.008105  -4.429069  0.568934
H    -0.126186  -1.012585  -0.207533
H    -1.318065  -0.070731  0.718464
H    0.040561  -3.658561  2.204152
H    -2.444860  -4.429616  -1.056923
H    -2.898357  -2.037955  -0.480241
O    1.725970  -2.408850  1.029277
H    -2.028919  -2.000547  1.999852
Cd    2.962431  1.134527  2.587397
