30
Energy: -579909.6932671  eV PBE+vdW (tier 2 basis)
C    0.067935  0.534767  0.095415
C    0.011782  0.251754  1.548071
O    1.096481  0.043622  2.190169
H    0.688927  1.421497  -0.092702
H    -0.921836  0.633378  -0.359318
H    0.590802  -0.308862  -0.386198
N    -1.182503  0.178813  2.213913
C    -2.199155  1.244542  2.224134
C    -1.493487  2.607594  2.069669
O    -0.389388  2.805563  2.638515
H    -1.137592  -0.389881  3.057856
H    -2.920159  1.087646  1.411560
C    -3.008425  1.244811  3.564124
C    -2.417244  0.739557  4.895546
S    -0.978113  1.486613  5.810910
C    -1.265991  3.273591  5.790549
H    -3.887489  0.596459  3.424469
H    -3.413502  2.256027  3.703229
H    -2.155682  -0.329846  4.880933
H    -3.211935  0.822606  5.654368
H    -0.455988  3.716681  6.382508
H    -2.222163  3.432808  6.307434
H    -1.274187  3.676295  4.774603
N    -2.095823  3.563069  1.362995
C    -3.352390  3.491882  0.604504
H    -1.588006  4.447364  1.340276
H    -4.209539  3.286331  1.257297
H    -3.298930  2.739193  -0.192049
H    -3.514352  4.465859  0.134739
Hg    0.710974  1.055240  4.108192
