30
Energy: -579908.8362572  eV PBE+vdW (tier 2 basis)
C    -0.112111  0.482110  -0.129492
C    -0.042772  0.133871  1.320516
O    1.031105  -0.329086  1.795176
H    0.327682  1.478519  -0.290267
H    -1.138244  0.458438  -0.511912
H    0.506706  -0.227817  -0.692303
N    -1.114525  0.280087  2.142829
C    -2.018190  1.423482  2.179107
C    -1.343474  2.426951  3.161054
O    -0.585396  1.996744  4.060910
H    -0.929891  -0.073025  3.084727
H    -2.089918  1.860579  1.173809
C    -3.412989  0.923747  2.645032
C    -4.497092  2.021390  2.680098
S    -6.168286  1.369136  2.910085
C    -6.247782  0.955943  4.648569
H    -3.309221  0.463484  3.638584
H    -3.711821  0.130633  1.946856
H    -4.559518  2.546305  1.715304
H    -4.309143  2.760641  3.473806
H    -7.270639  0.606348  4.832146
H    -6.038217  1.842650  5.264656
H    -5.539574  0.152632  4.899537
N    -1.615225  3.729549  3.008242
C    -1.036491  4.796169  3.822336
H    -2.268033  4.005078  2.277891
H    -0.686280  5.602170  3.166963
H    -0.207354  4.388977  4.406015
H    -1.791295  5.202942  4.509583
Hg    1.652820  0.539772  3.933663
