30
Energy: -579909.0133151  eV PBE+vdW (tier 2 basis)
C    0.540520  -0.067960  0.256752
C    -0.017647  0.297243  1.591235
O    0.419288  1.271362  2.276329
H    1.598313  -0.347570  0.368198
H    0.514572  0.818080  -0.391889
H    0.007377  -0.891957  -0.228613
N    -1.048944  -0.415372  2.083280
C    -1.680981  -0.235899  3.387517
C    -0.732584  0.335812  4.442222
O    0.393678  -0.228462  4.652067
H    -1.450920  -1.148529  1.485928
H    -2.543522  0.437853  3.264001
C    -2.189043  -1.596832  3.951553
C    -3.289377  -2.284086  3.121837
S    -2.759409  -3.104198  1.589639
C    -2.041279  -4.645813  2.165094
H    -2.611615  -1.396887  4.947817
H    -1.329990  -2.263407  4.108388
H    -4.065498  -1.571427  2.806963
H    -3.777141  -3.050726  3.741901
H    -1.241919  -4.473906  2.897429
H    -2.831850  -5.263622  2.615942
H    -1.641269  -5.154664  1.280744
N    -1.163742  1.303465  5.245730
C    -2.410849  2.069083  5.185905
H    -0.532770  1.511651  6.020698
H    -2.608299  2.411409  4.162398
H    -2.301064  2.949010  5.826029
H    -3.261006  1.478560  5.553091
Hg    2.229784  0.853270  3.697078
