30
Energy: -579908.8476831  eV PBE+vdW (tier 2 basis)
C    0.100525  0.527686  -0.101974
C    0.092140  0.299218  1.379033
O    1.114925  0.649558  2.036481
H    -0.880725  0.378391  -0.563800
H    0.831932  -0.153398  -0.559854
H    0.449559  1.549456  -0.300194
N    -1.006648  -0.258697  1.929033
C    -1.354539  -0.310501  3.355266
C    -0.999374  -1.707047  3.926297
O    0.195781  -2.113179  3.749481
H    -1.751343  -0.484803  1.269273
H    -0.623501  0.336930  3.871637
C    -2.720367  0.359261  3.610375
C    -3.936721  -0.092674  2.786722
S    -4.023779  0.770978  1.187572
C    -5.572248  0.171448  0.505074
H    -2.571483  1.438981  3.458718
H    -2.952027  0.262549  4.679183
H    -4.860054  0.152171  3.334128
H    -3.963993  -1.176268  2.593887
H    -5.684544  0.650047  -0.474427
H    -6.406251  0.467768  1.157057
H    -5.556764  -0.920701  0.388467
N    -1.790922  -2.521464  4.623384
C    -3.231923  -2.568687  4.880851
H    -1.271728  -3.340616  4.948486
H    -3.789847  -2.862356  3.982077
H    -3.608996  -1.620211  5.270710
H    -3.396400  -3.336537  5.642606
Hg    1.999912  -0.657065  3.710228
