30
Energy: -579909.0952393  eV PBE+vdW (tier 2 basis)
C    -1.277798  0.359985  0.552361
C    -0.647195  0.431684  1.911379
O    0.266092  1.295864  2.072988
H    -1.560307  1.372947  0.236783
H    -2.155695  -0.294037  0.526470
H    -0.527431  -0.000075  -0.165404
N    -1.093092  -0.415164  2.857779
C    -0.882316  -0.353519  4.311596
C    0.298086  -1.258278  4.741043
O    1.449271  -1.091988  4.227213
H    -1.862608  -1.025526  2.559644
H    -0.527291  0.666655  4.548028
C    -2.221380  -0.513093  5.064197
C    -3.076472  -1.777887  4.820135
S    -3.953598  -1.904921  3.226803
C    -5.271077  -0.691038  3.384384
H    -2.825153  0.378691  4.846125
H    -2.009727  -0.442893  6.142989
H    -3.837583  -1.843732  5.611085
H    -2.496320  -2.711328  4.856802
H    -4.879923  0.324054  3.533672
H    -5.927767  -0.966590  4.221219
H    -5.838768  -0.731932  2.447598
N    0.133668  -2.196958  5.661197
C    1.209481  -3.055625  6.166881
H    -0.802343  -2.369270  6.015161
H    0.967385  -3.346619  7.193385
H    2.155191  -2.506363  6.140492
H    1.303228  -3.955902  5.545161
Hg    2.058851  0.974777  3.435436
