30
Energy: -579908.8415949  eV PBE+vdW (tier 2 basis)
C    -0.272436  -0.810805  -0.042415
C    -0.263338  -0.441192  1.411068
O    0.597818  0.395526  1.797539
H    -0.329035  0.108971  -0.640052
H    -1.105113  -1.470076  -0.312017
H    0.681203  -1.295472  -0.291597
N    -1.188997  -1.015656  2.212182
C    -1.524769  -0.637623  3.587761
C    -0.787640  -1.569437  4.584849
O    0.482266  -1.503589  4.609440
H    -1.775891  -1.713594  1.764383
H    -1.010539  0.320947  3.766336
C    -3.025226  -0.301890  3.755165
C    -4.051409  -1.197756  3.044514
S    -5.699461  -0.804710  3.700800
C    -6.785755  -1.793999  2.675091
H    -3.157095  0.722485  3.379793
H    -3.238091  -0.243695  4.832448
H    -3.882707  -2.275127  3.198408
H    -4.072470  -1.013482  1.959237
H    -7.801797  -1.614310  3.045317
H    -6.542597  -2.862399  2.761937
H    -6.714398  -1.477644  1.624497
N    -1.348409  -2.423830  5.439408
C    -2.704884  -2.960847  5.563152
H    -0.647507  -2.871044  6.034095
H    -2.707665  -3.635536  6.423844
H    -2.985867  -3.546189  4.678573
H    -3.441253  -2.172124  5.751094
Hg    1.682251  0.342040  3.849584
