30
Energy: -579910.0959191  eV PBE+vdW (tier 2 basis)
C    0.726059  -0.209756  0.376069
C    0.363139  0.326012  1.717927
O    1.379631  0.607113  2.489389
H    1.346110  0.522388  -0.158720
H    -0.157430  -0.460299  -0.220264
H    1.341354  -1.111298  0.510901
N    -0.910619  0.467028  2.039015
C    -1.605549  0.715102  3.306356
C    -2.956532  -0.078076  3.066717
O    -3.284080  -0.245145  1.892198
H    -1.640430  0.159336  1.354269
H    -1.046390  0.261593  4.141337
C    -1.943550  2.230600  3.564246
C    -1.784258  2.741828  5.005481
S    -0.102379  3.288325  5.597424
C    0.076833  4.956427  4.889392
H    -2.997848  2.395595  3.294946
H    -1.388846  2.864730  2.855534
H    -2.077229  1.998769  5.757517
H    -2.399619  3.637049  5.174144
H    1.111513  5.270372  5.071210
H    -0.604351  5.590705  5.472574
H    -0.168721  4.988780  3.823706
N    -3.688144  -0.480481  4.114712
C    -3.392569  -0.453387  5.542426
H    -4.565030  -0.921606  3.837061
H    -3.854268  0.411414  6.039960
H    -2.311681  -0.460444  5.725957
H    -3.797542  -1.361317  6.002631
Hg    1.064481  1.866591  4.084748
