30
Energy: -579908.8297631  eV PBE+vdW (tier 2 basis)
C    -3.099361  0.219395  -1.026979
C    -1.902392  -0.046983  -0.176466
O    -0.847873  -0.482079  -0.729991
H    -4.032851  0.187253  -0.455556
H    -3.131891  -0.530406  -1.828175
H    -2.988520  1.196972  -1.521478
N    -1.923279  0.138344  1.164529
C    -2.505363  1.282280  1.860388
C    -1.436802  2.409002  1.830451
O    -0.211693  2.161662  1.651943
H    -1.104267  -0.245297  1.639207
H    -3.386856  1.617429  1.295336
C    -2.917104  0.831361  3.283542
C    -3.551070  1.868725  4.216382
S    -4.991847  2.697739  3.484438
C    -5.732538  3.519357  4.896040
H    -2.027859  0.438586  3.801399
H    -3.604403  -0.016396  3.154802
H    -2.832620  2.648000  4.521731
H    -3.882459  1.371757  5.140353
H    -6.578346  4.100839  4.512581
H    -5.005535  4.181544  5.386644
H    -6.091382  2.767257  5.614014
N    -1.855402  3.656705  2.036185
C    -0.987542  4.836000  2.028353
H    -2.845833  3.797045  2.247997
H    -0.579016  5.024372  3.030420
H    -1.576932  5.701348  1.710231
H    -0.156818  4.672508  1.335613
Hg    1.035921  0.571171  0.175413
