30
Energy: -579910.0014093  eV PBE+vdW (tier 2 basis)
C    0.446228  -1.078843  1.029190
C    -0.354860  0.158288  0.768534
O    0.018740  1.061536  0.007189
H    0.698872  -1.546990  0.069376
H    -0.053818  -1.808401  1.674986
H    1.397495  -0.783225  1.494127
N    -1.565982  0.271541  1.419473
C    -2.385322  1.475794  1.452362
C    -3.009868  1.933526  0.105553
O    -4.228684  2.413888  0.087826
H    -1.908204  -0.531632  1.937286
H    -3.264302  1.162206  2.039670
C    -1.680756  2.683000  2.178580
C    -2.058127  2.864119  3.659634
S    -3.616740  3.799011  4.088250
C    -3.107505  5.540975  3.958183
H    -1.816942  3.625839  1.625033
H    -0.597709  2.503421  2.130768
H    -1.287046  3.433411  4.198854
H    -2.186431  1.905135  4.180622
H    -4.017580  6.146492  4.042464
H    -2.570792  5.753241  3.028484
H    -2.467609  5.721014  4.832827
N    -2.317015  1.847190  -0.992436
C    -2.769265  2.227782  -2.329473
H    -1.325947  1.516312  -0.835461
H    -3.642749  2.882113  -2.268182
H    -3.031022  1.323832  -2.895556
H    -1.942725  2.732970  -2.840684
Hg    -4.660222  3.316365  1.950203
