30
Energy: -579908.6541942  eV PBE+vdW (tier 2 basis)
C    0.299227  0.773787  1.074599
C    -0.206385  -0.391022  1.860643
O    0.641161  -1.217178  2.314134
H    0.070788  0.617367  0.007305
H    1.388156  0.824781  1.173078
H    -0.151265  1.717061  1.401007
N    -1.524896  -0.590244  2.118147
C    -2.659986  -0.422029  1.195244
C    -2.485028  -1.458644  0.048358
O    -1.612701  -2.378114  0.099495
H    -1.678848  -1.304774  2.828574
H    -3.527418  -0.777436  1.773676
C    -2.938907  1.059792  0.819557
C    -4.419783  1.464908  0.715968
S    -5.110245  1.241988  -0.949940
C    -6.879620  1.369843  -0.682556
H    -2.391905  1.361043  -0.084826
H    -2.524599  1.657721  1.641679
H    -4.514580  2.540187  0.936696
H    -5.055015  0.933100  1.439825
H    -7.353981  1.261135  -1.664388
H    -7.113169  2.361078  -0.267216
H    -7.230700  0.586095  0.002268
N    -3.285280  -1.397101  -1.003939
C    -3.293849  -2.377622  -2.094829
H    -3.949353  -0.606442  -1.076889
H    -4.185240  -2.201756  -2.703059
H    -3.317113  -3.394955  -1.689622
H    -2.401107  -2.262121  -2.722325
Hg    -0.118696  -3.357990  1.765687
