30
Energy: -579909.2426227  eV PBE+vdW (tier 2 basis)
C    0.025310  0.457354  0.389459
C    0.010306  -0.116483  1.779156
O    0.983384  -0.853174  2.097174
H    -0.911447  0.956065  0.116924
H    0.234132  -0.347716  -0.326391
H    0.857150  1.172226  0.317842
N    -1.041922  0.210578  2.562479
C    -1.493967  -0.272380  3.885066
C    -0.718069  0.394859  5.046310
O    0.493194  0.151813  5.328705
H    -1.684438  0.861141  2.119569
H    -2.523911  0.103906  3.959609
C    -1.590713  -1.803152  4.035343
C    -2.548552  -2.491790  3.026716
S    -4.291883  -2.133133  3.339952
C    -4.801021  -3.479438  4.414822
H    -1.905757  -2.021450  5.065400
H    -0.608030  -2.294869  3.904846
H    -2.396486  -3.577561  3.060154
H    -2.343517  -2.156492  2.001083
H    -5.846296  -3.285102  4.680812
H    -4.188979  -3.511605  5.326857
H    -4.724033  -4.435466  3.878423
N    -1.390593  1.269819  5.781900
C    -0.815866  1.989733  6.924487
H    -2.345886  1.493631  5.516739
H    -0.182828  2.815740  6.576118
H    -0.210241  1.303384  7.525185
H    -1.635332  2.388224  7.528448
Hg    1.703800  -1.433119  4.200915
