30
Energy: -579908.7039436  eV PBE+vdW (tier 2 basis)
C    -0.154399  1.362109  1.667864
C    -0.050362  -0.030362  2.185735
O    1.008476  -0.680197  2.019368
H    -0.885761  1.962744  2.215998
H    -0.401523  1.345449  0.595813
H    0.836135  1.828906  1.752012
N    -1.056784  -0.630083  2.928517
C    -2.438752  -0.823948  2.520293
C    -2.345619  -2.035602  1.523449
O    -1.535441  -1.891667  0.575815
H    -0.682765  -1.461361  3.394948
H    -3.006936  -1.149331  3.418760
C    -3.174137  0.379657  1.918682
C    -4.686613  0.121379  1.775402
S    -5.488278  -0.362434  3.330766
C    -5.749441  1.195225  4.177229
H    -2.777515  0.634078  0.926546
H    -3.018436  1.248536  2.571962
H    -4.898325  -0.701929  1.078878
H    -5.188029  1.017106  1.385459
H    -6.179240  0.954417  5.156085
H    -6.457709  1.808321  3.599550
H    -4.807350  1.746322  4.305827
N    -3.053082  -3.130986  1.771486
C    -2.979551  -4.357004  0.971594
H    -3.659416  -3.137753  2.589098
H    -2.252147  -5.058803  1.402899
H    -2.689501  -4.103347  -0.052076
H    -3.965166  -4.833977  0.968862
Hg    0.811551  -2.728468  0.675415
