30
Energy: -579910.4529032  eV PBE+vdW (tier 2 basis)
C    -0.191696  -0.305644  -0.264101
C    -0.327457  -0.395783  1.225243
O    0.592899  -0.888849  1.913917
H    -1.101699  0.032700  -0.771094
H    0.108622  -1.284079  -0.658892
H    0.625672  0.392545  -0.495107
N    -1.474644  0.092042  1.773644
C    -1.814771  0.204723  3.195677
C    -0.729221  0.992360  3.992756
O    0.249505  0.481537  4.635878
H    -2.151430  0.480189  1.123078
H    -2.676808  0.883544  3.197901
C    -2.382144  -1.100958  3.889807
C    -2.134309  -2.492839  3.273217
S    -0.763799  -3.571896  3.910040
C    -1.332993  -4.054429  5.566171
H    -3.473819  -0.977337  3.872880
H    -2.131072  -1.083205  4.961438
H    -1.945605  -2.449043  2.192581
H    -3.021697  -3.125987  3.414394
H    -2.161094  -4.757852  5.407921
H    -1.650105  -3.199537  6.170364
H    -0.495848  -4.578675  6.041863
N    -0.866727  2.307553  4.009104
C    0.067624  3.225058  4.672006
H    -1.686761  2.715721  3.568154
H    1.095534  2.888244  4.505357
H    -0.131154  3.255258  5.751026
H    -0.072014  4.223433  4.248779
Hg    0.621007  -1.605795  4.175001
