30
Energy: -579908.8836012  eV PBE+vdW (tier 2 basis)
C    -0.416981  0.160614  -0.130948
C    -0.173601  0.093459  1.341350
O    0.996524  -0.111083  1.764491
H    -0.156812  1.164506  -0.501000
H    -1.452325  -0.075748  -0.398119
H    0.262795  -0.540556  -0.630806
N    -1.192269  0.226178  2.235354
C    -2.237463  1.247347  2.153908
C    -1.628892  2.523755  2.795358
O    -0.675278  2.411910  3.614003
H    -0.881553  0.079367  3.198376
H    -2.469741  1.426189  1.095683
C    -3.502131  0.799086  2.918963
C    -4.125715  -0.470065  2.327174
S    -5.506239  -1.024125  3.359642
C    -6.218785  -2.352677  2.398726
H    -4.235777  1.616369  2.910846
H    -3.232099  0.636730  3.974329
H    -3.393718  -1.294863  2.276338
H    -4.507976  -0.307504  1.306460
H    -7.049921  -2.751804  2.991376
H    -5.472385  -3.140722  2.219106
H    -6.593737  -1.973492  1.436254
N    -2.132411  3.728455  2.519156
C    -3.320962  4.085812  1.750803
H    -1.651688  4.492075  2.999901
H    -3.114765  5.009346  1.197762
H    -4.177120  4.265870  2.416335
H    -3.577079  3.301699  1.032097
Hg    1.634741  1.354991  3.541233
