30
Energy: -579908.9915379  eV PBE+vdW (tier 2 basis)
C    -0.149772  0.542535  0.124054
C    -0.435061  0.347534  1.571292
O    0.272685  0.616090  2.504516
H    -0.160427  -0.416718  -0.411226
H    0.836560  1.004971  0.024294
H    -0.904911  1.194681  -0.336818
N    -1.759794  -0.225870  1.989771
C    -2.353250  -1.450427  1.492318
C    -1.254242  -2.617551  1.299317
O    -0.668884  -2.699136  0.221502
H    -1.768055  -0.146379  3.014138
H    -3.034427  -1.803723  2.280803
C    -3.151848  -1.212818  0.211032
C    -4.245854  -0.177299  0.503366
S    -3.529740  1.369771  1.108934
C    -4.602486  1.854761  2.461719
H    -3.628011  -2.146872  -0.116581
H    -2.496614  -0.891445  -0.607931
H    -4.987689  -0.535504  1.229728
H    -4.778154  0.076535  -0.428832
H    -4.172639  2.761907  2.902095
H    -4.698684  1.057579  3.209572
H    -5.593987  2.086507  2.040430
N    -1.091242  -3.390588  2.373824
C    -0.157764  -4.518630  2.432771
H    -1.685478  -3.233291  3.181223
H    0.859945  -4.180425  2.207062
H    -0.454230  -5.308411  1.730039
H    -0.181394  -4.925175  3.447797
Hg    1.044665  -4.538983  -1.129326
