30
Energy: -579909.1331868  eV PBE+vdW (tier 2 basis)
C    -0.867677  -0.507346  0.423867
C    -0.653217  0.189466  1.737971
O    0.286860  -0.223631  2.465066
H    0.089430  -0.565264  -0.108994
H    -1.612243  -0.012630  -0.210264
H    -1.189074  -1.539427  0.622089
N    -1.485561  1.215762  2.032259
C    -1.589457  2.035047  3.252128
C    -0.292369  2.844223  3.517581
O    0.578243  2.508166  4.373179
H    -2.166522  1.422621  1.307748
H    -2.348009  2.791386  3.007499
C    -2.103739  1.281071  4.492211
C    -3.566110  0.774876  4.361525
S    -4.788298  2.104164  4.412454
C    -5.188565  2.230137  6.158520
H    -2.005335  1.933727  5.370271
H    -1.494595  0.380234  4.703482
H    -3.782459  0.062914  5.167547
H    -3.715221  0.252931  3.406016
H    -5.898300  3.059697  6.254654
H    -4.291111  2.442400  6.756074
H    -5.655680  1.296904  6.503122
N    -0.121361  3.984729  2.854384
C    -1.039114  4.658625  1.932238
H    0.746044  4.472294  3.084826
H    -1.987011  4.917988  2.423224
H    -1.226708  4.046731  1.041635
H    -0.564033  5.589586  1.610427
Hg    1.007880  0.258731  4.627413
