30
Energy: -579908.8134103  eV PBE+vdW (tier 2 basis)
C    -0.556395  0.354024  -0.137662
C    -0.365942  0.151596  1.331440
O    0.746769  0.435310  1.847047
H    -0.332098  -0.580051  -0.673412
H    0.170545  1.102066  -0.474868
H    -1.565977  0.689767  -0.394440
N    -1.384594  -0.239595  2.173048
C    -2.252704  -1.396873  1.981053
C    -1.304795  -2.653686  1.923222
O    -0.143682  -2.492123  1.493586
H    -1.104422  -0.115582  3.148360
H    -2.856932  -1.461123  2.898415
C    -3.204054  -1.339586  0.771699
C    -4.138219  -0.122729  0.863894
S    -4.995282  0.131199  -0.702848
C    -6.434365  1.087903  -0.242311
H    -3.798929  -2.263065  0.755964
H    -2.632500  -1.331314  -0.165588
H    -3.559181  0.793401  1.086527
H    -4.885591  -0.227011  1.665114
H    -6.954826  1.333527  -1.175196
H    -6.134557  2.007741  0.280764
H    -7.094936  0.492592  0.406451
N    -1.799160  -3.816828  2.346613
C    -1.033860  -5.061157  2.417396
H    -2.762071  -3.845282  2.675548
H    -1.662645  -5.884970  2.060055
H    -0.737695  -5.270451  3.454683
H    -0.145264  -4.970970  1.787775
Hg    1.936112  -1.473116  2.686281
