30
Energy: -579909.7163192  eV PBE+vdW (tier 2 basis)
C    -0.006889  -2.595541  0.393972
C    -0.328797  -1.808117  1.625895
O    -0.289789  -0.554594  1.597421
H    -0.638109  -2.246056  -0.432972
H    -0.141040  -3.674428  0.529398
H    1.034360  -2.390446  0.109650
N    -0.652139  -2.505438  2.764007
C    -1.013824  -1.748649  3.937646
C    0.190392  -1.299166  4.800281
O    0.455903  -0.060436  4.854736
H    -0.676296  -3.520945  2.730596
H    -1.276740  -0.814025  3.449253
C    -2.310220  -2.078613  4.708216
C    -3.454071  -1.172269  4.219040
S    -3.231788  0.640306  4.568453
C    -4.566609  1.365162  3.581247
H    -2.157832  -1.955002  5.789011
H    -2.627125  -3.121067  4.559234
H    -4.385893  -1.398478  4.761351
H    -3.643482  -1.285686  3.142795
H    -4.481451  2.452561  3.688677
H    -5.510568  1.028307  4.030747
H    -4.506180  1.065632  2.530228
N    0.911601  -2.195629  5.451227
C    2.080432  -1.879400  6.281954
H    0.617293  -3.168153  5.407009
H    2.796224  -2.703586  6.206736
H    1.780072  -1.752613  7.329784
H    2.537834  -0.953751  5.921838
Hg    -0.926269  1.188121  3.403569
