34
Energy: -105401.190353 eV PBE+vdW (tier 2 basis)
C    -2.934202  -0.460171  0.379943
C    -2.512485  0.536847  1.413173
O    -1.515005  0.311333  2.150317
H    -2.092857  -0.647194  -0.300641
H    -3.805959  -0.149303  -0.204750
H    -3.158406  -1.413184  0.878318
N    -3.240017  1.661484  1.529527
C    -3.076132  2.804327  2.455063
C    -1.736710  3.538496  2.206044
O    -0.666791  3.105555  2.717299
H    -4.023319  1.739843  0.887987
H    -3.892492  3.478334  2.165243
C    -3.238465  2.524830  3.969114
C    -4.226445  1.428672  4.406584
C    -3.560126  0.109674  4.836242
C    -2.588745  0.250243  6.027256
N    -1.181415  -0.162491  5.676949
H    -3.524980  3.491211  4.407285
H    -2.250146  2.325790  4.412242
H    -4.958764  1.224290  3.612972
H    -4.816043  1.812003  5.250337
H    -3.027259  -0.344207  3.987838
H    -4.350450  -0.604768  5.099400
H    -2.943333  -0.344774  6.879196
H    -2.537298  1.290153  6.378074
H    -0.635693  -0.134448  6.546625
H    -1.212953  -1.164793  5.452666
N    -1.775596  4.635338  1.460106
C    -0.618463  5.466815  1.127234
H    -2.675776  4.924101  1.086549
H    -0.895271  6.521644  1.226897
H    -0.296785  5.275885  0.095475
H    0.199081  5.235091  1.813928
Sr    0.041300  1.061373  3.669506
