34
Energy: -105400.121909 eV PBE+vdW (tier 2 basis)
C    -0.668747  -0.364354  -0.167413
C    -0.556886  -0.456585  1.319872
O    0.571054  -0.660354  1.861757
H    -1.682004  -0.146596  -0.519879
H    -0.336717  -1.317693  -0.602475
H    0.017143  0.409938  -0.535524
N    -1.676008  -0.319957  2.047369
C    -1.864646  -0.502364  3.505844
C    -1.170052  0.615608  4.302980
O    0.078181  0.556473  4.539547
H    -2.527434  -0.171113  1.513105
H    -2.945224  -0.393114  3.650556
C    -1.482885  -1.901248  4.015326
C    -1.872122  -2.167242  5.475689
C    -3.382341  -2.140579  5.770126
C    -4.239029  -3.006674  4.833957
N    -3.638648  -4.330047  4.646070
H    -0.401693  -2.085692  3.883652
H    -1.973355  -2.645833  3.371685
H    -1.356602  -1.466741  6.152732
H    -1.490027  -3.167725  5.716172
H    -3.778196  -1.111291  5.760003
H    -3.518502  -2.481480  6.807376
H    -4.311097  -2.536706  3.837646
H    -5.271037  -3.021397  5.228087
H    -3.670228  -4.865732  5.515632
H    -4.173111  -4.872302  3.967163
N    -1.880588  1.631550  4.768522
C    -3.314567  1.901166  4.608226
H    -1.343658  2.307079  5.313021
H    -3.522304  2.879286  5.050490
H    -3.920588  1.152545  5.133313
H    -3.595535  1.942562  3.549636
Sr    1.905939  -0.517809  3.686304
