34
Energy: -105398.438703 eV PBE+vdW (tier 2 basis)
C    0.421918  1.298063  0.586179
C    0.028223  -0.021743  1.169141
O    0.931989  -0.956639  1.285258
H    1.218630  1.748484  1.194380
H    -0.417489  1.998672  0.537152
H    0.814549  1.152188  -0.429725
N    -1.206542  -0.209107  1.543272
C    -1.867967  -1.376730  2.134338
C    -3.357809  -1.092004  1.763762
O    -3.667688  0.098673  1.617146
H    -1.938616  0.529748  1.423041
H    -1.477501  -2.295180  1.676458
C    -1.655899  -1.369932  3.669087
C    -2.271544  -2.551904  4.422233
C    -2.093113  -2.454374  5.945930
C    -3.012055  -1.424173  6.619568
N    -4.415687  -1.734593  6.382853
H    -0.569621  -1.336111  3.856356
H    -2.064747  -0.420635  4.046101
H    -1.829056  -3.493964  4.061740
H    -3.351282  -2.603705  4.224267
H    -1.048238  -2.220822  6.205654
H    -2.296779  -3.443576  6.383859
H    -2.822224  -0.414186  6.226639
H    -2.755732  -1.384119  7.695196
H    -4.731057  -2.568789  6.876810
H    -5.042730  -0.964365  6.604842
N    -4.238910  -2.094412  1.630829
C    -4.047172  -3.537543  1.680686
H    -5.182971  -1.764230  1.434158
H    -2.983166  -3.789070  1.693966
H    -4.496739  -3.996519  0.791851
H    -4.514906  -3.968896  2.575182
Sr    2.783956  -2.074480  1.213156
