34
Energy: -105400.030224 eV PBE+vdW (tier 2 basis)
C    1.593720  -0.274224  1.285526
C    0.909815  -0.089029  2.598405
O    1.553361  0.324979  3.614198
H    1.999612  0.694417  0.960597
H    0.934000  -0.664058  0.503738
H    2.448528  -0.952026  1.410306
N    -0.399844  -0.355947  2.693266
C    -1.222810  -0.066475  3.877952
C    -0.926238  -1.080801  5.006881
O    -0.112418  -0.714566  5.922207
H    -0.886058  -0.645919  1.847326
H    -0.854234  0.884301  4.290239
C    -2.693552  0.147902  3.490343
C    -3.616611  0.447348  4.676356
C    -3.265319  1.704480  5.481169
C    -4.442909  2.164217  6.362267
N    -5.602733  2.478944  5.531486
H    -3.072369  -0.712470  2.920918
H    -2.706089  1.004004  2.797221
H    -3.675547  -0.422090  5.352837
H    -4.632562  0.593320  4.280958
H    -3.006481  2.525570  4.789567
H    -2.386170  1.542771  6.130275
H    -4.103967  2.999025  7.001494
H    -4.720699  1.345783  7.043342
H    -6.473082  2.385740  6.051234
H    -5.567572  3.436325  5.182894
N    -1.445545  -2.296291  5.057217
C    -2.360720  -2.979416  4.137605
H    -1.165181  -2.825016  5.883863
H    -2.263896  -4.055268  4.310438
H    -2.096002  -2.778150  3.095719
H    -3.400915  -2.686075  4.324747
Sr    1.852117  0.457454  5.867024
