34
Energy: -105398.745151 eV PBE+vdW (tier 2 basis)
C    0.812158  -0.339907  0.394809
C    0.150161  -0.783937  1.647902
O    0.482352  -1.945662  2.174165
H    0.222730  0.411782  -0.164242
H    1.017020  -1.204855  -0.246473
H    1.781926  0.115653  0.652129
N    -0.734835  -0.068884  2.281003
C    -1.337544  1.234783  1.967815
C    -1.846546  1.658125  3.379277
O    -2.092426  0.739254  4.181540
H    -1.158579  -0.374602  3.191044
H    -0.581966  1.911705  1.551404
C    -2.512706  1.022168  0.978961
C    -3.232852  2.278459  0.474892
C    -2.457397  3.214213  -0.465449
C    -1.919342  2.575261  -1.750599
N    -0.587616  1.951774  -1.545166
H    -3.241083  0.364532  1.477037
H    -2.108629  0.466657  0.120964
H    -3.633051  2.851464  1.324278
H    -4.124301  1.921420  -0.063406
H    -1.620454  3.709737  0.053416
H    -3.140861  4.029064  -0.743621
H    -1.893142  3.336782  -2.546693
H    -2.608107  1.790105  -2.097069
H    -0.318120  1.470331  -2.406710
H    0.104879  2.698769  -1.443234
N    -2.030264  2.948092  3.689023
C    -1.674204  4.154097  2.951126
H    -2.429610  3.078933  4.617231
H    -0.946435  3.928178  2.167143
H    -1.215187  4.870746  3.641575
H    -2.554209  4.622610  2.492149
Sr    1.007949  -3.811316  3.056026
