34
Energy: -105398.3474 eV PBE+vdW (tier 2 basis)
C    0.386859  0.032028  0.104218
C    0.131402  -0.402504  1.503773
O    0.894710  -1.346647  1.982603
H    -0.311761  0.784329  -0.257129
H    0.332261  -0.838690  -0.559517
H    1.407669  0.442719  0.059586
N    -0.715282  0.168263  2.346930
C    -1.957056  0.911401  2.060563
C    -2.719764  0.146327  0.926252
O    -2.254329  -0.892277  0.450783
H    -0.667446  -0.222812  3.285592
H    -2.561433  0.739415  2.964829
C    -1.799934  2.448953  1.973987
C    -0.982624  3.086628  0.845740
C    -1.587293  3.058110  -0.567451
C    -2.813629  3.967334  -0.748402
N    -2.498570  5.350097  -0.424773
H    -1.369045  2.762323  2.936381
H    -2.815903  2.874080  1.986778
H    0.034102  2.667071  0.837156
H    -0.851792  4.143479  1.120210
H    -1.871492  2.041972  -0.884094
H    -0.811402  3.383169  -1.278579
H    -3.632613  3.652267  -0.082634
H    -3.193872  3.831514  -1.779227
H    -1.868587  5.785969  -1.097151
H    -3.321692  5.938906  -0.319104
N    -3.909846  0.675448  0.594998
C    -4.809161  0.086881  -0.392506
H    -4.206295  1.529895  1.053534
H    -4.993509  0.796184  -1.209132
H    -5.765699  -0.181675  0.071977
H    -4.337870  -0.813709  -0.794405
Sr    2.021831  -3.178229  2.205482
