34
Energy: -105400.750107 eV PBE+vdW (tier 2 basis)
C    2.286316  1.513273  1.890359
C    1.375530  1.459926  3.075682
O    1.241711  2.508391  3.800410
H    2.441272  0.534559  1.429975
H    3.255306  1.930148  2.191004
H    1.859630  2.201783  1.146843
N    0.722116  0.332841  3.335175
C    -0.308888  0.210767  4.382995
C    0.321831  0.119837  5.792785
O    0.659416  1.188892  6.397328
H    0.809363  -0.470449  2.607951
H    -0.865712  1.162093  4.408524
C    -1.309424  -0.902677  4.032173
C    -0.725465  -2.319178  3.788634
C    -1.088934  -2.931975  2.425674
C    -0.666971  -2.098110  1.215523
N    0.741412  -1.634952  1.333968
H    -1.844539  -0.561606  3.135095
H    -2.069907  -0.928818  4.824363
H    -1.082622  -3.010184  4.566857
H    0.374381  -2.306365  3.868147
H    -2.173756  -3.101543  2.366127
H    -0.626117  -3.928549  2.363923
H    -1.294180  -1.199188  1.117984
H    -0.830783  -2.687931  0.301650
H    1.360952  -2.443497  1.443255
H    1.019630  -1.207463  0.447193
N    0.479782  -1.056871  6.370939
C    1.041151  -1.252634  7.709021
H    0.196642  -1.880920  5.846156
H    0.816563  -2.272133  8.033128
H    0.593233  -0.541159  8.410618
H    2.129379  -1.111116  7.696573
Sr    1.128683  3.364806  5.864964
