34
Energy: -105398.606843 eV PBE+vdW (tier 2 basis)
C    0.331228  -0.601796  0.035038
C    0.200615  -0.219526  1.479305
O    1.177659  -0.235411  2.251356
H    1.263747  -0.192360  -0.367281
H    -0.514132  -0.278694  -0.582872
H    0.403427  -1.697881  -0.023241
N    -1.045179  0.143477  1.909958
C    -1.502553  0.206340  3.305414
C    -0.834236  1.308216  4.129987
O    -1.570031  2.035294  4.921856
H    -1.782366  0.134319  1.213946
H    -2.563343  0.485050  3.247932
C    -1.399417  -1.131792  4.087906
C    -2.284540  -2.275628  3.574276
C    -1.797168  -3.012985  2.318468
C    -2.476154  -4.382850  2.152573
N    -2.150786  -5.274836  3.254571
H    -1.682222  -0.907649  5.129823
H    -0.346229  -1.446715  4.118632
H    -3.317423  -1.917668  3.424489
H    -2.338644  -3.023185  4.380310
H    -0.705453  -3.161444  2.376252
H    -1.984164  -2.432398  1.403422
H    -2.192476  -4.799009  1.167512
H    -3.568266  -4.254356  2.131772
H    -1.203320  -5.646977  3.216805
H    -2.809155  -6.040985  3.372520
N    0.460284  1.446404  4.073651
C    1.236341  2.411788  4.837804
H    0.934925  0.751457  3.391719
H    2.284635  2.326815  4.538784
H    1.166871  2.207197  5.915612
H    0.900166  3.437655  4.632776
Sr    -2.649763  3.298466  6.304767
