34
Energy: -105400.033844 eV PBE+vdW (tier 2 basis)
C    -2.329392  -3.271037  -0.003605
C    -1.647095  -2.310955  0.912547
O    -0.488424  -1.863385  0.637365
H    -1.687074  -4.147496  -0.161121
H    -2.458355  -2.789963  -0.983629
H    -3.306896  -3.600556  0.362856
N    -2.275849  -1.918732  2.027424
C    -1.799240  -0.860974  2.934332
C    -0.618895  -1.362982  3.793532
O    0.561675  -1.102924  3.374172
H    -3.217033  -2.272102  2.186780
H    -1.335805  -0.093146  2.296468
C    -2.969900  -0.198415  3.670909
C    -3.791040  0.747871  2.782336
C    -3.029412  1.961304  2.223736
C    -2.214909  2.754460  3.257321
N    -2.989108  2.984884  4.477527
H    -2.579670  0.380345  4.521548
H    -3.633252  -0.964565  4.097073
H    -4.620559  1.102267  3.407142
H    -4.257162  0.197180  1.949691
H    -3.769612  2.627591  1.755873
H    -2.359972  1.669206  1.395365
H    -1.840729  3.673360  2.768686
H    -1.313503  2.184565  3.549669
H    -3.809113  3.562202  4.282303
H    -2.439445  3.502115  5.163603
N    -0.763458  -2.039496  4.920779
C    -1.972843  -2.505349  5.607542
H    0.121392  -2.256915  5.380534
H    -1.685474  -3.336850  6.257845
H    -2.714596  -2.872706  4.892964
H    -2.408221  -1.709758  6.223717
Sr    1.536414  -1.076084  1.306315
