34
Energy: -105398.604556 eV PBE+vdW (tier 2 basis)
C    0.142201  -0.088022  0.676033
C    -0.137056  0.082134  2.131104
O    0.846624  -0.091671  2.977506
H    1.073597  0.429217  0.415368
H    -0.666412  0.282479  0.040100
H    0.287868  -1.156449  0.458648
N    -1.311795  0.387980  2.604689
C    -2.578808  0.698524  1.932580
C    -3.366617  1.395463  3.083046
O    -2.914345  1.293865  4.237211
H    -1.477860  0.546490  3.632064
H    -2.386952  1.414778  1.120461
C    -3.312376  -0.543808  1.366142
C    -4.006489  -1.467970  2.370358
C    -3.099427  -2.283997  3.297390
C    -3.877997  -3.377855  4.050302
N    -4.463966  -4.343120  3.132571
H    -2.593708  -1.116506  0.759383
H    -4.058102  -0.169035  0.651841
H    -4.612177  -2.181035  1.792195
H    -4.724228  -0.891815  2.976611
H    -2.612421  -1.640501  4.047560
H    -2.294937  -2.759273  2.707551
H    -4.695034  -2.910234  4.618209
H    -3.207640  -3.843719  4.797695
H    -3.804023  -5.037261  2.787739
H    -5.281643  -4.818322  3.505833
N    -4.493021  2.059143  2.798575
C    -5.140221  2.268065  1.506641
H    -4.959027  2.439403  3.620090
H    -5.687276  3.215558  1.541389
H    -5.850712  1.463718  1.272697
H    -4.400800  2.344338  0.701905
Sr    2.478360  -0.234989  4.374408
