34
Energy: -105399.4631 eV PBE+vdW (tier 2 basis)
C    -0.301628  -0.192013  -0.424383
C    -0.176938  -0.027517  1.054499
O    0.962914  -0.053154  1.619664
H    -0.129522  0.768785  -0.934957
H    -1.279939  -0.577288  -0.728947
H    0.485891  -0.876807  -0.760860
N    -1.275044  0.168729  1.816246
C    -2.361945  1.070616  1.447300
C    -1.804954  2.526289  1.530968
O    -0.598767  2.737600  1.889127
H    -1.108067  0.096006  2.821157
H    -2.632404  0.878620  0.397121
C    -3.594047  0.832812  2.337393
C    -4.196961  -0.567556  2.159960
C    -5.487195  -0.775763  2.963184
C    -5.295876  -0.850597  4.482289
N    -6.588119  -0.990109  5.137567
H    -4.361545  1.583250  2.093655
H    -3.317529  1.022378  3.387942
H    -3.456045  -1.333738  2.440627
H    -4.409658  -0.724130  1.090299
H    -5.950649  -1.713169  2.620121
H    -6.213765  0.019765  2.735875
H    -4.844878  0.082883  4.858032
H    -4.572278  -1.663117  4.710741
H    -7.031421  -1.883350  4.922969
H    -6.514950  -0.920397  6.150972
N    -2.626142  3.508014  1.209263
C    -2.320145  4.939203  1.220884
H    -3.574034  3.249364  0.941453
H    -2.485284  5.356845  0.220651
H    -1.278843  5.085542  1.513348
H    -2.977729  5.449717  1.934723
Sr    1.538676  2.033648  2.441304
