34
Energy: -105398.364854 eV PBE+vdW (tier 2 basis)
C    0.001808  1.363956  0.313807
C    -0.091644  0.811687  1.698696
O    0.997864  0.756582  2.415038
H    -0.530065  2.322565  0.250195
H    -0.436404  0.665725  -0.406607
H    1.051784  1.533814  0.059049
N    -1.214012  0.435351  2.287223
C    -2.531800  0.082690  1.712143
C    -2.331187  -1.266186  0.955046
O    -1.314502  -1.409878  0.270538
H    -1.082124  0.125542  3.248921
H    -3.178681  -0.044909  2.588773
C    -3.143165  1.175246  0.807787
C    -4.647315  1.012795  0.541389
C    -5.556958  1.259813  1.747009
C    -7.045249  1.027477  1.434090
N    -7.317533  -0.357047  1.032494
H    -2.621515  1.182565  -0.156826
H    -2.963198  2.148918  1.290258
H    -4.842054  0.018173  0.113038
H    -4.907846  1.729214  -0.252493
H    -5.433411  2.296227  2.099254
H    -5.287337  0.606365  2.592521
H    -7.366057  1.739922  0.655280
H    -7.631215  1.260229  2.332166
H    -8.139871  -0.743748  1.489296
H    -7.436051  -0.467139  0.027827
N    -3.284497  -2.212418  1.066693
C    -4.468408  -2.270339  1.924022
H    -3.106872  -3.018467  0.470628
H    -4.737378  -3.323866  2.052205
H    -5.334810  -1.738733  1.500822
H    -4.254314  -1.867092  2.921555
Sr    3.064420  0.545958  3.024943
