34
Energy: -105400.079155 eV PBE+vdW (tier 2 basis)
C    -0.498939  -0.195885  -0.661365
C    -0.088006  -0.111055  0.773239
O    1.132216  0.075710  1.083017
H    -0.418060  0.783672  -1.154888
H    -1.509212  -0.589598  -0.803525
H    0.218108  -0.857924  -1.166326
N    -1.006061  -0.245668  1.756572
C    -2.280960  0.483910  1.731152
C    -1.981886  1.882003  2.347512
O    -0.813711  2.393319  2.142191
H    -0.598263  -0.369051  2.684737
H    -2.504365  0.682517  0.670656
C    -3.462156  -0.280888  2.337314
C    -4.800691  0.079811  1.653282
C    -6.037652  -0.076553  2.551227
C    -6.413150  1.198142  3.302269
N    -5.293322  1.716855  4.140915
H    -3.501584  -0.109400  3.421615
H    -3.266943  -1.353693  2.210958
H    -4.906036  -0.552257  0.760729
H    -4.770054  1.116090  1.277300
H    -5.894700  -0.911629  3.256242
H    -6.904972  -0.357384  1.938770
H    -7.312767  1.021256  3.910344
H    -6.663413  1.988317  2.579649
H    -5.611745  2.569917  4.608741
H    -5.116894  1.057063  4.904832
N    -2.901012  2.510502  3.033697
C    -2.680512  3.859685  3.553379
H    -3.857558  2.069027  3.351682
H    -1.952917  3.854633  4.376354
H    -3.633607  4.238726  3.932986
H    -2.320854  4.527888  2.762781
Sr    1.441736  2.224280  1.898324
