34
Energy: -105398.280685 eV PBE+vdW (tier 2 basis)
C    1.548961  1.361959  1.118681
C    2.044191  0.276562  2.009038
O    3.240363  -0.186703  1.769302
H    0.537723  1.691234  1.344423
H    1.553560  0.995420  0.084328
H    2.245413  2.211101  1.190018
N    1.415444  -0.213424  3.064143
C    -0.002073  -0.121730  3.484353
C    -0.827384  -0.864326  2.392122
O    -0.534207  -0.683020  1.209695
H    1.954524  -0.921247  3.560620
H    -0.024741  -0.672147  4.433279
C    -0.473674  1.319946  3.784608
C    -1.767811  1.427459  4.610709
C    -3.062273  1.485664  3.790435
C    -4.307943  1.704788  4.661405
N    -4.258598  2.981667  5.354559
H    -0.606672  1.884041  2.852756
H    0.348620  1.800826  4.334108
H    -1.711699  2.350623  5.203659
H    -1.816781  0.613979  5.352770
H    -3.212740  0.574030  3.194031
H    -2.989279  2.309027  3.060264
H    -4.376561  0.912781  5.422435
H    -5.206206  1.602357  4.022521
H    -4.872050  3.042773  6.163218
H    -4.405464  3.788106  4.750179
N    -1.821520  -1.693510  2.778784
C    -2.296765  -2.065340  4.106585
H    -2.330387  -2.083064  1.987103
H    -1.490525  -2.024466  4.846092
H    -2.658886  -3.098440  4.070554
H    -3.119330  -1.421127  4.445828
Sr    5.111053  -0.740270  0.813876
