34
Energy: -105399.985616 eV PBE+vdW (tier 2 basis)
C    -0.776557  -1.219529  0.626592
C    -0.471721  -0.297541  1.764709
O    0.615671  -0.414410  2.397663
H    -1.737564  -1.022167  0.140993
H    -0.770037  -2.252426  1.001607
H    0.026050  -1.147168  -0.119427
N    -1.391383  0.633276  2.072097
C    -1.459042  1.641468  3.158296
C    -0.369215  2.716857  3.040487
O    0.858141  2.429054  3.189009
H    -2.218141  0.613857  1.481862
H    -2.415039  2.137386  2.957909
C    -1.616045  1.081987  4.597377
C    -0.431103  0.481718  5.371748
C    -0.811600  0.039137  6.796319
C    -1.744461  -1.180785  6.859939
N    -2.026370  -1.499684  8.248575
H    -2.420041  0.335086  4.539806
H    -2.023707  1.907288  5.202294
H    0.357473  1.256438  5.479091
H    -0.040426  -0.402820  4.830063
H    -1.280148  0.875184  7.336249
H    0.110316  -0.195998  7.351085
H    -1.294141  -2.009598  6.268984
H    -2.705202  -0.945530  6.378084
H    -2.850188  -2.089627  8.346140
H    -1.251021  -1.979393  8.704313
N    -0.727653  3.975875  2.825143
C    -2.069452  4.539790  2.627706
H    0.053234  4.632189  2.802023
H    -2.557247  4.107864  1.745623
H    -1.957399  5.614091  2.457789
H    -2.696358  4.400747  3.516855
Sr    2.173135  0.616295  3.690293
