34
Energy: -105400.565025 eV PBE+vdW (tier 2 basis)
C    -2.066878  -0.914721  0.452336
C    -1.307081  -0.617380  1.706054
O    -0.067037  -0.308685  1.625623
H    -3.098165  -1.224607  0.645314
H    -1.543564  -1.697455  -0.112268
H    -2.079198  -0.017870  -0.182546
N    -1.963830  -0.678188  2.858144
C    -1.394021  -0.596653  4.216957
C    -0.647705  0.716319  4.488746
O    0.593250  0.847316  4.240787
H    -2.899127  -1.225614  2.883662
H    -2.278142  -0.576342  4.862298
C    -0.578861  -1.848163  4.604068
C    -1.230213  -3.184815  4.208428
C    -2.521502  -3.628095  4.923093
C    -3.801699  -2.792227  4.778899
N    -4.075723  -2.359079  3.379352
H    -0.398204  -1.810911  5.689155
H    0.417147  -1.804054  4.132673
H    -0.481870  -3.965780  4.403911
H    -1.379896  -3.206093  3.117986
H    -2.327282  -3.739023  6.000588
H    -2.737549  -4.646303  4.564596
H    -3.756466  -1.884322  5.398657
H    -4.635501  -3.385980  5.183419
H    -4.113059  -3.182698  2.771641
H    -5.013676  -1.953057  3.332520
N    -1.314968  1.726892  5.030552
C    -2.735470  1.796689  5.389763
H    -0.747746  2.549748  5.233695
H    -2.978070  2.842481  5.598465
H    -2.946024  1.209333  6.292951
H    -3.367254  1.459538  4.560968
Sr    1.908395  0.341651  2.444942
