34
Energy: -105398.409972 eV PBE+vdW (tier 2 basis)
C    0.267272  -0.952963  0.353151
C    0.009425  0.174037  1.300664
O    0.856688  1.165517  1.350311
H    1.238289  -1.413251  0.582333
H    0.311454  -0.569007  -0.675497
H    -0.506180  -1.725577  0.404552
N    -1.050791  0.142270  2.059497
C    -1.548096  1.103479  3.053507
C    -2.489825  0.195409  3.897565
O    -3.030304  -0.750187  3.308421
H    -1.729128  -0.648011  2.012524
H    -0.704440  1.481701  3.646177
C    -2.277675  2.253015  2.310591
C    -3.057320  3.272601  3.159789
C    -4.485083  2.879240  3.582629
C    -5.494842  2.710140  2.441173
N    -5.244609  1.508641  1.640664
H    -2.972279  1.797768  1.587617
H    -1.504136  2.783662  1.730211
H    -3.131354  4.192253  2.559044
H    -2.475838  3.560259  4.049891
H    -4.863899  3.672079  4.243810
H    -4.486146  1.963815  4.193104
H    -5.447490  3.579675  1.767996
H    -6.510551  2.716066  2.879603
H    -5.366488  0.650463  2.180263
H    -5.855250  1.458670  0.826050
N    -2.666254  0.428124  5.209291
C    -2.136330  1.481495  6.064295
H    -3.310983  -0.231911  5.642117
H    -2.880884  2.269799  6.240678
H    -1.245778  1.935610  5.619657
H    -1.848705  1.049427  7.029484
Sr    2.429969  2.598329  0.983079
