34
Energy: -105399.741479 eV PBE+vdW (tier 2 basis)
C    -0.246716  -0.121866  0.387931
C    -0.251704  -0.145029  1.866155
O    0.821583  0.057878  2.533786
H    0.761298  0.104896  0.029628
H    -0.978775  0.636505  -0.013495
H    -0.572537  -1.082734  -0.036807
N    -1.385665  -0.376789  2.577047
C    -2.406992  -1.377856  2.256475
C    -1.708395  -2.769949  2.242005
O    -0.505281  -2.899430  2.643071
H    -1.280732  -0.173976  3.569312
H    -3.072560  -1.387717  3.134989
C    -3.285319  -1.065786  1.026143
C    -3.888258  0.343670  1.080168
C    -4.525416  0.797929  -0.240628
C    -3.570483  0.908837  -1.434290
N    -2.360247  1.693307  -1.110447
H    -4.106740  -1.799302  0.991774
H    -2.708892  -1.210230  0.103833
H    -3.106052  1.060619  1.364518
H    -4.645548  0.383940  1.877584
H    -4.992500  1.778837  -0.063613
H    -5.350621  0.126136  -0.521398
H    -4.134462  1.331548  -2.281904
H    -3.237776  -0.088825  -1.763299
H    -1.825353  1.861539  -1.964964
H    -2.626076  2.621902  -0.772192
N    -2.408072  -3.813898  1.839088
C    -1.919589  -5.195921  1.836082
H    -3.356130  -3.646350  1.512219
H    -2.733493  -5.848062  1.509618
H    -1.605242  -5.490820  2.843863
H    -1.075558  -5.302479  1.144273
Sr    1.506379  -1.976813  3.347775
