34
Energy: -105400.347097 eV PBE+vdW (tier 2 basis)
C    -0.679853  1.830906  0.165721
C    -0.876509  0.699857  1.124069
O    0.112791  -0.018204  1.468435
H    -1.589004  2.411485  -0.020790
H    -0.317553  1.419993  -0.787441
H    0.105277  2.499054  0.542322
N    -2.111499  0.475227  1.589626
C    -2.630606  -0.657338  2.385624
C    -2.185331  -0.574218  3.849338
O    -0.957911  -0.741992  4.160769
H    -2.825035  1.109324  1.241515
H    -3.724529  -0.557926  2.337368
C    -2.346787  -2.054920  1.803517
C    -2.661124  -2.214232  0.308451
C    -4.074697  -1.838257  -0.169296
C    -5.240393  -2.508116  0.569288
N    -5.640049  -1.747141  1.782199
H    -2.958406  -2.750034  2.398071
H    -1.299756  -2.359752  1.971668
H    -2.480627  -3.271732  0.063110
H    -1.924393  -1.650057  -0.284602
H    -4.130060  -2.108771  -1.233045
H    -4.223565  -0.744710  -0.148428
H    -4.952469  -3.521926  0.884206
H    -6.083454  -2.632363  -0.127650
H    -6.233237  -2.344481  2.362771
H    -6.256806  -0.982998  1.493685
N    -3.071535  -0.365828  4.808648
C    -4.518453  -0.145991  4.719443
H    -2.667722  -0.343779  5.746321
H    -4.740815  0.928739  4.697390
H    -4.981953  -0.580147  5.611216
H    -4.932303  -0.640590  3.833036
Sr    1.080888  -1.077705  3.215620
