34
Energy: -105400.247415 eV PBE+vdW (tier 2 basis)
C    -0.484981  -0.575059  0.123545
C    -0.433490  -0.517781  1.616077
O    0.624249  -0.859770  2.229664
H    -1.425826  -0.206728  -0.297786
H    -0.339451  -1.619099  -0.189104
H    0.350222  0.001505  -0.294565
N    -1.525982  -0.104262  2.270669
C    -1.809185  -0.121241  3.724710
C    -1.029384  0.960338  4.486946
O    0.226937  0.864187  4.656117
H    -2.317853  0.138247  1.682040
H    -2.876875  0.130581  3.788039
C    -1.666431  -1.497195  4.398089
C    -2.539216  -2.570554  3.741402
C    -2.694621  -3.841852  4.589475
C    -3.204467  -3.597916  6.017699
N    -4.304389  -2.621243  6.034916
H    -1.989176  -1.357162  5.440215
H    -0.614528  -1.832674  4.430368
H    -2.137916  -2.841107  2.753231
H    -3.536915  -2.137423  3.574588
H    -1.743028  -4.393754  4.642451
H    -3.391970  -4.507297  4.058832
H    -2.394245  -3.190487  6.644096
H    -3.460968  -4.574794  6.463016
H    -5.128686  -3.011361  5.572636
H    -4.594700  -2.442945  6.997025
N    -1.728832  1.959074  5.001570
C    -1.192917  3.048548  5.817131
H    -2.731866  1.964408  4.831344
H    -1.737226  3.092209  6.767692
H    -1.317273  4.002103  5.289405
H    -0.132816  2.869167  6.007069
Sr    1.965822  -0.464642  4.002905
