30
Energy: -609762.563718 eV PBE+vdW (tier 2 basis)
C    -0.147010  0.977854  0.066528
C    -0.148358  0.689577  1.528924
O    0.899595  0.964671  2.213739
H    0.025626  2.054072  -0.078160
H    -1.081521  0.693946  -0.427894
H    0.694108  0.455423  -0.408361
N    -1.241663  0.177920  2.091604
C    -1.470083  -0.038215  3.524833
C    -0.721310  -1.301268  4.012373
O    0.490673  -1.152239  4.461912
H    -2.040344  -0.027959  1.488186
H    -0.996937  0.797116  4.063313
C    -2.987150  0.036490  3.827822
C    -3.874045  -0.795159  2.953075
N    -3.678498  -2.159736  2.821913
C    -5.009437  -0.432414  2.261591
C    -4.673505  -2.616182  2.075643
N    -5.497644  -1.599231  1.722605
H    -3.285411  1.089839  3.743205
H    -3.125833  -0.236479  4.885180
H    -5.516200  0.517537  2.140854
H    -4.830154  -3.646444  1.775801
H    -6.344227  -1.688504  1.167520
N    -1.297070  -2.467132  3.980307
C    -0.668196  -3.709881  4.422563
H    -2.292865  -2.518277  3.536223
H    -0.159139  -4.197768  3.579910
H    -1.453140  -4.377944  4.790713
H    0.056928  -3.513957  5.217618
Pb    2.064809  0.325343  4.016459
