30
Energy: -609762.491243 eV PBE+vdW (tier 2 basis)
C    -0.017481  0.617743  -0.023063
C    -0.072462  0.541241  1.463773
O    0.936085  0.995119  2.137819
H    0.874414  0.092033  -0.389083
H    0.093427  1.672103  -0.315145
H    -0.913726  0.204915  -0.495987
N    -1.149859  0.046627  2.044972
C    -1.432218  0.021493  3.487595
C    -0.712453  -1.178880  4.123357
O    0.526372  -1.069705  4.451669
H    -1.947889  -0.380489  1.479047
H    -0.983649  0.915587  3.949217
C    -2.960229  0.094084  3.705479
C    -3.747896  -0.926844  2.935336
N    -3.458288  -1.164720  1.598675
C    -4.854818  -1.663048  3.303180
C    -4.372224  -2.020293  1.167585
N    -5.231704  -2.341192  2.167458
H    -3.271029  1.104791  3.397762
H    -3.173759  0.025193  4.780233
H    -5.412879  -1.728856  4.229730
H    -4.448141  -2.424027  0.163812
H    -6.034494  -2.958791  2.084126
N    -1.368276  -2.300606  4.315503
C    -0.817324  -3.531708  4.883804
H    -2.350150  -2.306536  4.014490
H    0.139095  -3.318858  5.366233
H    -0.673480  -4.275793  4.089764
H    -1.524018  -3.927807  5.621043
Pb    2.086054  0.468223  3.940614
