30
Energy: -609762.682905 eV PBE+vdW (tier 2 basis)
C    -1.623766  -2.693333  1.101633
C    -1.666907  -1.427938  1.897218
O    -1.151939  -1.220899  2.967771
H    -0.833486  -2.605021  0.338249
H    -2.563116  -2.903895  0.572499
H    -1.363105  -3.529072  1.758076
N    -2.445729  -0.327758  1.295523
C    -2.001428  1.024827  1.736532
C    -2.452100  1.252536  3.183059
O    -3.589423  0.827117  3.575435
H    -2.477474  -0.395844  0.272905
H    -0.901544  1.044720  1.713696
C    -2.500884  2.118116  0.767038
C    -3.971567  2.418982  0.680395
N    -4.999400  1.506910  0.909236
C    -4.539401  3.591730  0.244405
C    -6.152539  2.125878  0.620481
N    -5.897669  3.379058  0.213397
H    -2.124394  1.851871  -0.235653
H    -1.977961  3.049035  1.025472
H    -4.096227  4.533086  -0.058249
H    -7.148053  1.702491  0.698089
H    -6.598778  4.058444  -0.074361
N    -1.666747  1.950747  3.977568
C    -1.961368  2.284598  5.373706
H    -0.742852  2.196510  3.628998
H    -3.029952  2.157290  5.559658
H    -1.671471  3.323873  5.560585
H    -1.391070  1.623747  6.038961
Pb    -4.836650  -0.470811  2.207680
