30
Energy: -609762.106542 eV PBE+vdW (tier 2 basis)
C    0.273830  -0.091642  0.207861
C    0.062748  -0.288509  1.670618
O    0.988128  -0.880905  2.369781
H    -0.560242  0.430060  -0.271556
H    0.394046  -1.078750  -0.262336
H    1.205846  0.460988  0.028307
N    -1.060869  0.099198  2.222450
C    -1.540162  -0.078299  3.589295
C    -2.952817  0.586303  3.527947
O    -3.182634  1.338161  2.572538
H    -1.774278  0.648358  1.693510
H    -1.618237  -1.152851  3.806101
C    -0.650959  0.588286  4.684514
C    0.048369  1.843772  4.272973
N    1.376671  1.845523  3.841388
C    -0.402164  3.139424  4.245653
C    1.709852  3.116172  3.573255
N    0.650650  3.908141  3.804259
H    0.086736  -0.148675  5.041568
H    -1.279067  0.793891  5.560674
H    -1.362905  3.568672  4.503112
H    2.675106  3.476535  3.234810
H    0.638993  4.919756  3.689542
N    -3.832709  0.338479  4.508812
C    -3.736500  -0.584496  5.636901
H    -4.714883  0.835590  4.392928
H    -4.701246  -1.086588  5.768225
H    -3.491185  -0.059265  6.570453
H    -2.986752  -1.360663  5.451605
Pb    2.641681  -0.147169  3.596214
