30
Energy: -609762.119177 eV PBE+vdW (tier 2 basis)
C    0.884503  -0.173747  0.709415
C    -0.142478  0.512056  1.554796
O    -0.225402  1.831737  1.353109
H    0.677689  0.011684  -0.353302
H    0.898279  -1.249163  0.904771
H    1.879087  0.245327  0.914085
N    -0.874472  -0.181376  2.373522
C    -1.892414  0.500152  3.148630
C    -1.234087  1.363320  4.237617
O    -1.306609  2.643269  4.137498
H    -5.679504  -0.877009  3.166677
H    -2.456648  1.227190  2.532770
C    -2.924439  -0.511835  3.712453
C    -3.634833  -1.278656  2.642505
N    -5.020527  -1.340647  2.545723
C    -3.163826  -2.075515  1.627390
C    -5.388679  -2.133503  1.531217
N    -4.264272  -2.580924  0.965586
H    -3.658985  0.024616  4.330091
H    -2.423414  -1.231949  4.370800
H    -2.147054  -2.313100  1.346601
H    -6.402876  -2.368266  1.230425
H    -4.236175  -3.213206  0.168607
N    -0.548129  0.852343  5.247282
C    -0.209476  -0.544172  5.534756
H    -0.161611  1.554600  5.879229
H    -0.195340  -1.124144  4.607331
H    -0.909214  -0.977458  6.260858
H    0.795085  -0.564147  5.970274
Pb    -0.746179  3.721523  2.219285
