30
Energy: -609762.085578 eV PBE+vdW (tier 2 basis)
C    -1.462117  0.570069  -0.108441
C    -1.173055  0.596274  1.364705
O    -0.540823  1.479499  1.930598
H    -2.126847  1.410671  -0.349624
H    -1.925954  -0.361349  -0.451637
H    -0.527228  0.738214  -0.656502
N    -1.665942  -0.477560  2.113059
C    -1.524355  -0.419767  3.551689
C    -0.890000  -1.701916  4.064793
O    -1.540412  -2.542143  4.810984
H    -2.272785  -1.165440  1.677577
H    -0.795689  0.406381  3.689135
C    -2.830040  0.002352  4.265192
C    -2.670707  0.480603  5.673293
N    -2.675957  -0.369831  6.781308
C    -2.524794  1.763709  6.138038
C    -2.543651  0.391879  7.879056
N    -2.446006  1.677272  7.510432
H    -3.589568  -0.795732  4.203335
H    -3.236432  0.830431  3.670736
H    -2.485876  2.711893  5.614748
H    -2.520150  0.049302  8.907716
H    -2.346257  2.463808  8.149384
N    0.340620  -2.025121  3.718898
C    1.275708  -1.284469  2.866790
H    0.652427  -2.939436  4.049202
H    2.290603  -1.483125  3.224895
H    1.082110  -0.208559  2.908782
H    1.187620  -1.627112  1.827636
Pb    -2.849207  -2.690613  6.568898
