30
Energy: -609762.322792 eV PBE+vdW (tier 2 basis)
C    -0.156917  -2.698852  0.110479
C    0.350481  -1.926393  1.275508
O    1.433810  -2.256230  1.842934
H    -0.938389  -2.178889  -0.448823
H    -0.500828  -3.693082  0.430496
H    0.701477  -2.879153  -0.553953
N    -0.275656  -0.804994  1.745477
C    -1.656510  -0.617881  2.205209
C    -1.546020  -0.157968  3.676459
O    -0.548671  -0.511021  4.384710
H    0.380078  -0.201412  2.242128
H    -2.134378  0.174432  1.612064
C    -2.556570  -1.866009  2.106241
C    -2.272997  -3.082621  2.956638
N    -1.070082  -3.455213  3.563243
C    -3.183891  -4.090397  3.177919
C    -1.274323  -4.653506  4.127232
N    -2.535606  -5.056204  3.905888
H    -2.600203  -2.163626  1.049213
H    -3.577388  -1.532449  2.338920
H    -4.216406  -4.199778  2.867378
H    -0.548017  -5.233300  4.687236
H    -2.940565  -5.933233  4.225956
N    -2.487400  0.604784  4.208251
C    -3.693691  1.167882  3.595379
H    -2.336921  0.821240  5.194980
H    -3.883314  2.146602  4.047611
H    -4.561456  0.521498  3.780095
H    -3.563217  1.310450  2.518648
Pb    0.976576  -2.293310  4.171553
