30
Energy: -609762.055691 eV PBE+vdW (tier 2 basis)
C    0.246320  0.115294  0.148685
C    0.133694  0.000038  1.628254
O    1.226250  0.014084  2.331779
H    0.861314  -0.711554  -0.233031
H    0.768726  1.048175  -0.104868
H    -0.730338  0.099873  -0.344926
N    -1.042541  -0.116726  2.195159
C    -1.352973  -0.228938  3.610797
C    -2.862046  -0.653971  3.576086
O    -3.463418  -0.499333  2.510949
H    -1.934774  -0.159342  1.650871
H    -0.734760  -1.018586  4.064547
C    -1.145478  1.137298  4.351439
C    -0.366506  1.084855  5.621295
N    0.965931  0.666894  5.702340
C    -0.755993  1.474885  6.877748
C    1.350192  0.810312  6.983523
N    0.330648  1.294648  7.704657
H    -2.122926  1.587672  4.565301
H    -0.654868  1.831554  3.653780
H    -1.695281  1.875723  7.239609
H    2.326580  0.579665  7.397077
H    0.362873  1.504204  8.700615
N    -3.439663  -1.134250  4.688861
C    -2.856173  -1.430648  5.988963
H    -4.430129  -1.341589  4.566588
H    -3.096394  -0.652910  6.726919
H    -1.767705  -1.527929  5.917348
H    -3.250993  -2.386288  6.352324
Pb    2.516922  -0.075741  4.067654
