30
Energy: -609762.177167 eV PBE+vdW (tier 2 basis)
C    0.498744  0.629477  0.488704
C    -0.082013  0.699141  1.856845
O    0.304243  1.659497  2.642989
H    1.591588  0.541637  0.562932
H    0.287179  1.566900  -0.044262
H    0.104307  -0.213125  -0.087736
N    -0.958579  -0.193224  2.253236
C    -1.622268  -0.268704  3.541045
C    -2.279259  -1.688861  3.507555
O    -2.335664  -2.266926  2.422402
H    -1.261258  -0.996679  1.660024
H    -0.871996  -0.219958  4.347004
C    -2.685374  0.868083  3.711551
C    -2.673085  1.528937  5.045452
N    -1.600703  2.306308  5.494869
C    -3.641612  1.551963  6.016891
C    -1.936044  2.782779  6.706386
N    -3.156650  2.340883  7.038229
H    -3.687101  0.463531  3.521281
H    -2.520054  1.623984  2.930197
H    -4.626979  1.102560  6.052195
H    -1.334530  3.427557  7.338777
H    -3.648130  2.566726  7.901014
N    -2.771483  -2.149354  4.667679
C    -3.437386  -3.448626  4.791955
H    -2.595289  -1.622486  5.516658
H    -2.788276  -4.166597  5.308341
H    -3.656376  -3.821774  3.788107
H    -4.372484  -3.335334  5.351459
Pb    0.464532  2.856686  4.449219
