30
Energy: -609762.025181 eV PBE+vdW (tier 2 basis)
C    -0.897064  0.592376  -0.688943
C    -0.892143  1.118841  0.709465
O    -0.137214  2.151267  0.959447
H    0.126649  0.349934  -1.003042
H    -1.252597  1.389138  -1.358247
H    -1.535156  -0.288968  -0.804556
N    -1.661235  0.525461  1.593435
C    -2.052466  0.813639  2.979558
C    -1.135405  1.661059  3.835124
O    0.147737  1.560526  3.788731
H    -2.244972  -0.334209  1.262919
H    -3.036066  1.305217  2.927509
C    -2.245771  -0.563260  3.705938
C    -3.247153  -1.428185  3.005405
N    -3.220134  -1.554041  1.625833
C    -4.248837  -2.219910  3.517185
C    -4.185719  -2.403835  1.306923
N    -4.820869  -2.829918  2.425615
H    -2.564414  -0.387272  4.741188
H    -1.260819  -1.054007  3.751730
H    -4.585374  -2.410733  4.528649
H    -4.450005  -2.729122  0.307180
H    -5.586989  -3.496512  2.453347
N    -1.675726  2.439236  4.759923
C    -3.095368  2.675822  5.052589
H    -1.001972  2.872823  5.391947
H    -3.639832  2.964033  4.146154
H    -3.156622  3.501066  5.767159
H    -3.560830  1.789893  5.502213
Pb    1.578361  2.390642  2.283620
