30
Energy: -609762.148183 eV PBE+vdW (tier 2 basis)
C    -1.315899  1.092127  -0.409875
C    -1.139929  0.870258  1.061440
O    0.134329  0.793115  1.446757
H    -2.372593  1.156589  -0.681768
H    -0.830743  0.281907  -0.971048
H    -0.812560  2.023206  -0.704286
N    -2.193693  0.764936  1.814531
C    -2.132030  0.492813  3.256239
C    -1.193353  1.423981  4.027061
O    -0.023348  1.056083  4.415203
H    -3.508112  -0.597723  1.387163
H    -3.138922  0.721949  3.640573
C    -1.888182  -1.006955  3.546106
C    -3.023824  -1.835516  3.026299
N    -3.731954  -1.481679  1.886938
C    -3.585727  -3.005351  3.471020
C    -4.685619  -2.381485  1.636048
N    -4.602884  -3.316529  2.590779
H    -1.784477  -1.181887  4.625126
H    -0.950819  -1.340863  3.074452
H    -3.353030  -3.628982  4.324731
H    -5.396710  -2.361539  0.818848
H    -5.208991  -4.131530  2.653469
N    -1.608534  2.645936  4.312704
C    -2.900267  3.262018  3.989773
H    -0.949748  3.207771  4.853193
H    -3.643641  3.035471  4.765402
H    -3.251694  2.923261  3.010552
H    -2.757775  4.346242  3.950582
Pb    1.646729  0.685377  2.952988
