30
Energy: -609763.277369 eV PBE+vdW (tier 2 basis)
C    -1.221092  -2.465750  -0.047398
C    -1.623793  -1.190723  0.624483
O    -1.058577  -0.855545  1.703063
H    -0.146347  -2.421313  -0.271235
H    -1.771441  -2.669865  -0.971680
H    -1.364420  -3.299441  0.652396
N    -2.560515  -0.438058  0.018054
C    -3.128164  0.856705  0.424887
C    -2.063021  1.863529  0.909638
O    -1.797887  2.023039  2.140742
H    -2.930501  -0.819168  -0.848340
H    -3.522075  1.279333  -0.509608
C    -4.359048  0.778810  1.378697
C    -4.434398  -0.269914  2.442766
N    -3.536194  -0.430296  3.494622
C    -5.477471  -1.142618  2.645358
C    -4.032095  -1.375422  4.300149
N    -5.203450  -1.817633  3.811053
H    -5.241605  0.632832  0.742903
H    -4.484475  1.775140  1.830672
H    -6.387002  -1.312786  2.081619
H    -3.580319  -1.745751  5.214176
H    -5.794742  -2.522778  4.244824
N    -1.492227  2.615883  -0.018512
C    -0.485360  3.650567  0.225250
H    -1.791929  2.489459  -0.982782
H    -0.284590  3.713068  1.296456
H    -0.862753  4.615514  -0.133811
H    0.434959  3.401615  -0.316837
Pb    -1.297472  0.372564  3.636396
