30
Energy: -609762.138 eV PBE+vdW (tier 2 basis)
C    0.656958  -1.183529  0.995746
C    -0.010676  -0.066093  1.720397
O    0.586794  1.082005  1.757159
H    0.861559  -0.872664  -0.037832
H    0.052960  -2.095933  0.995240
H    1.629554  -1.391442  1.463191
N    -1.185190  -0.273874  2.291605
C    -1.977893  0.794830  2.901523
C    -1.270645  1.346603  4.151870
O    -0.784243  2.540893  4.104117
H    -1.794520  -1.141119  2.026642
H    -2.012177  1.644075  2.197876
C    -3.446675  0.347992  3.161832
C    -3.994559  -0.548816  2.096033
N    -3.268764  -1.660692  1.690780
C    -5.212102  -0.539350  1.457371
C    -4.030491  -2.307000  0.819028
N    -5.211702  -1.661300  0.662041
H    -4.060396  1.252389  3.255139
H    -3.515094  -0.168688  4.127852
H    -6.059618  0.132768  1.510414
H    -3.773680  -3.221954  0.297281
H    -5.977575  -1.965737  0.067917
N    -1.129359  0.659176  5.268011
C    -1.515158  -0.717094  5.598189
H    -0.658427  1.178147  6.012368
H    -0.705947  -1.159412  6.189945
H    -1.654097  -1.315013  4.694986
H    -2.432104  -0.723342  6.201065
Pb    0.620667  3.173948  2.474287
