30
Energy: -609761.896095 eV PBE+vdW (tier 2 basis)
C    0.000629  0.294130  -0.139358
C    -0.133932  0.343318  1.342285
O    0.910953  0.150755  2.069454
H    0.746846  1.034670  -0.459018
H    -0.944045  0.487091  -0.658372
H    0.381946  -0.693114  -0.435689
N    -1.315669  0.580128  1.901782
C    -1.534445  0.580651  3.347778
C    -2.992292  0.310183  3.790319
O    -3.144554  -0.399572  4.775782
H    -2.123053  0.635559  1.283113
H    -1.005850  -0.296199  3.751452
C    -0.972338  1.873284  4.023065
C    -0.409014  1.592531  5.371041
N    0.734356  0.806875  5.540780
C    -0.847439  1.968507  6.612594
C    0.968134  0.724600  6.863910
N    0.029553  1.416695  7.521311
H    -1.763802  2.628238  4.106346
H    -0.196508  2.314233  3.380135
H    -1.695234  2.568731  6.919135
H    1.782928  0.196558  7.347672
H    -0.023631  1.516631  8.533255
N    -3.988190  0.887309  3.074074
C    -5.397317  0.706261  3.437704
H    -3.777448  1.638128  2.423569
H    -6.013285  0.794853  2.537582
H    -5.718431  1.453062  4.175665
H    -5.520362  -0.290800  3.870163
Pb    2.006893  -0.350538  3.932837
