30
Energy: -609762.298617 eV PBE+vdW (tier 2 basis)
C    0.035355  -1.293268  0.284516
C    -0.272504  -0.869978  1.686605
O    0.755256  -0.339065  2.340501
H    0.397382  -0.432744  -0.294360
H    -0.841223  -1.728484  -0.203165
H    0.847456  -2.032836  0.289055
N    -1.479119  -1.015515  2.159282
C    -1.750257  -0.553014  3.515927
C    -1.008903  -1.415576  4.553117
O    -0.071899  -0.876466  5.250183
H    -3.116092  -0.508783  1.083217
H    -1.345521  0.465016  3.671203
C    -3.275136  -0.480069  3.792038
C    -4.022438  0.325890  2.781138
N    -3.868574  0.112766  1.419884
C    -4.996134  1.284295  2.904978
C    -4.695235  0.901425  0.729738
N    -5.391363  1.615150  1.623896
H    -3.448671  -0.049804  4.786722
H    -3.706342  -1.490212  3.805960
H    -5.442133  1.738212  3.780745
H    -4.788166  0.959730  -0.348072
H    -6.110808  2.293735  1.384766
N    -1.266260  -2.699300  4.737957
C    -2.200757  -3.579762  4.032280
H    -0.693700  -3.133410  5.463525
H    -3.134059  -3.694086  4.598461
H    -1.731078  -4.564723  3.938254
H    -2.397256  -3.192478  3.028796
Pb    1.633182  0.208353  4.230847
