30
Energy: -609762.199094 eV PBE+vdW (tier 2 basis)
C    -0.021032  1.553916  1.181763
C    -0.057400  0.800049  2.467598
O    0.931758  0.927184  3.304028
H    -0.911652  1.384702  0.568658
H    0.866643  1.234491  0.616121
H    0.095090  2.629002  1.373867
N    -1.059700  -0.006955  2.719124
C    -1.269344  -0.919845  3.837680
C    -2.635948  -1.586481  3.466442
O    -3.339214  -1.019146  2.623883
H    -1.893840  -0.053261  2.094743
H    -0.466301  -1.671962  3.848938
C    -1.327830  -0.235548  5.237751
C    -1.907142  1.142101  5.263329
N    -1.101993  2.283082  5.252034
C    -3.215074  1.553087  5.314892
C    -1.914298  3.348168  5.305515
N    -3.189467  2.929031  5.337381
H    -0.313409  -0.218965  5.669366
H    -1.903175  -0.885964  5.910154
H    -4.141082  0.991654  5.342965
H    -1.616940  4.390751  5.332143
H    -4.004797  3.536416  5.391617
N    -2.950668  -2.713694  4.116768
C    -4.189652  -3.459069  3.879734
H    -2.251793  -3.147366  4.712782
H    -3.976614  -4.389556  3.339228
H    -4.858284  -2.839721  3.276462
H    -4.667675  -3.698114  4.836201
Pb    1.261837  2.165012  5.075833
