30
Energy: -609761.989681 eV PBE+vdW (tier 2 basis)
C    -1.000197  -0.512922  -0.089890
C    -1.420560  -0.307035  1.338239
O    -1.996388  -1.146472  2.014975
H    -0.489185  0.349873  -0.532124
H    -1.889721  -0.749109  -0.688166
H    -0.345315  -1.391968  -0.141446
N    -1.136843  0.946599  1.892791
C    -1.431776  1.161068  3.291010
C    -2.305438  2.387209  3.494630
O    -1.938239  3.404549  4.211923
H    -0.596071  1.622911  1.364546
H    -2.060100  0.278868  3.539374
C    -0.195962  1.052757  4.220977
C    1.025213  1.829378  3.849839
N    1.225990  3.173610  4.177347
C    2.157323  1.390120  3.209537
C    2.450672  3.518710  3.747895
N    3.024096  2.460568  3.157919
H    0.076339  -0.011050  4.220092
H    -0.493270  1.265509  5.260554
H    2.422339  0.413814  2.821656
H    2.924984  4.488626  3.851987
H    3.960318  2.449167  2.757774
N    -3.510857  2.442649  2.961941
C    -4.215921  1.429982  2.170778
H    -4.012261  3.314706  3.135958
H    -5.286859  1.534902  2.370143
H    -3.896655  0.419981  2.445677
H    -4.033270  1.591069  1.100469
Pb    -0.363802  4.492110  5.272825
