30
Energy: -609762.103187 eV PBE+vdW (tier 2 basis)
C    1.217526  2.539299  0.698765
C    0.688191  1.450191  1.568474
O    1.467515  0.457935  1.887936
H    2.123699  2.974115  1.141354
H    0.481973  3.329119  0.517226
H    1.513898  2.101071  -0.265711
N    -0.561080  1.484837  1.965824
C    -1.323777  0.496321  2.721944
C    -2.735246  1.155515  2.800927
O    -2.799928  2.378599  2.633990
H    -1.161528  2.318094  1.797526
H    -1.353424  -0.448243  2.161039
C    -0.773540  0.210887  4.156149
C    -0.096592  1.361020  4.828973
N    1.291804  1.511819  4.821586
C    -0.627544  2.405150  5.543258
C    1.579257  2.616404  5.525152
N    0.436883  3.170657  5.961663
H    -0.087466  -0.650698  4.110575
H    -1.607694  -0.132236  4.781611
H    -1.652852  2.658104  5.784957
H    2.566166  3.014145  5.734688
H    0.373908  4.012752  6.530526
N    -3.789084  0.374523  3.084087
C    -3.852995  -1.088201  3.096642
H    -4.671554  0.881409  3.122799
H    -4.871147  -1.378997  3.369698
H    -3.178871  -1.526071  3.843836
H    -3.633996  -1.514563  2.108271
Pb    2.722107  0.041153  3.631327
