30
Energy: -609761.814566 eV PBE+vdW (tier 2 basis)
C    -0.178452  -0.009424  -0.186404
C    0.004586  0.424242  1.244867
O    0.939559  1.078370  1.654272
H    0.535128  0.545869  -0.801529
H    -1.194663  0.175038  -0.560434
H    0.042528  -1.081123  -0.304760
N    -1.012845  0.076757  2.180498
C    -1.865937  -1.087163  2.088167
C    -3.274647  -0.748065  2.601472
O    -4.088998  -1.665457  3.002519
H    -0.702238  0.324674  3.122338
H    -2.010675  -1.309119  1.017266
C    -1.259800  -2.374439  2.715212
C    -1.013131  -2.334244  4.187611
N    -1.993809  -2.664542  5.128476
C    0.134224  -2.024250  4.874919
C    -1.436041  -2.561708  6.344778
N    -0.159464  -2.172236  6.212950
H    -0.304537  -2.545906  2.202591
H    -1.878406  -3.246603  2.449030
H    1.120721  -1.739531  4.527088
H    -1.915693  -2.760857  7.297012
H    0.492197  -2.029675  6.982601
N    -3.641990  0.509263  2.537138
C    -4.957138  1.064111  2.846564
H    -2.898791  1.136154  2.208556
H    -5.290880  1.675209  1.999815
H    -4.892215  1.702665  3.736489
H    -5.671482  0.254992  3.014293
Pb    -4.180599  -3.272396  4.509355
