30
Energy: -609761.714138 eV PBE+vdW (tier 2 basis)
C    -0.893105  1.367812  1.616428
C    -0.989067  0.584824  2.877857
O    -0.158183  0.822850  3.829279
H    -0.293797  2.264845  1.802555
H    -1.875894  1.644837  1.222899
H    -0.372822  0.774676  0.845547
N    -1.905841  -0.383598  3.070013
C    -2.252088  -1.444444  2.105543
C    -0.950398  -2.262478  1.846181
O    0.098754  -2.074119  2.602253
H    -1.967458  -0.681225  4.043783
H    -2.932159  -2.110854  2.657459
C    -3.022107  -0.956813  0.847249
C    -3.869374  -2.016018  0.210222
N    -3.331369  -3.231268  -0.167483
C    -5.196258  -1.980144  -0.148500
C    -4.306558  -3.923268  -0.741797
N    -5.445260  -3.192127  -0.750109
H    -2.319138  -0.549861  0.105573
H    -3.675097  -0.134372  1.165204
H    -5.959310  -1.218790  -0.044167
H    -4.229580  -4.924607  -1.149647
H    -6.335723  -3.489676  -1.138556
N    -0.945765  -3.150388  0.899493
C    0.196885  -4.007818  0.591770
H    -1.908715  -3.314722  0.346109
H    1.085537  -3.406889  0.363480
H    -0.058764  -4.614532  -0.281130
H    0.424408  -4.670469  1.436966
Pb    1.186445  -0.974151  4.193845
