30
Energy: -609762.536662 eV PBE+vdW (tier 2 basis)
C    -0.384763  -1.356319  -0.514701
C    -1.219981  -1.517485  0.702295
O    -0.751798  -2.028851  1.762753
H    -0.893535  -0.822469  -1.323195
H    -0.148997  -2.370562  -0.879426
H    0.576023  -0.887363  -0.269711
N    -2.532486  -1.137865  0.704544
C    -3.001140  0.204514  0.360233
C    -1.952164  1.258497  0.762636
O    -1.255263  1.127107  1.818816
H    -3.044896  -1.549537  1.485106
H    -3.199017  0.289538  -0.718451
C    -4.333890  0.487811  1.117924
C    -4.541146  -0.157508  2.465034
N    -3.579208  -0.410059  3.452348
C    -5.766528  -0.528323  2.968631
C    -4.233572  -0.909269  4.509599
N    -5.548245  -0.981328  4.245581
H    -5.163358  0.161925  0.477213
H    -4.438890  1.579278  1.212212
H    -6.757435  -0.490946  2.531149
H    -3.792094  -1.224201  5.449502
H    -6.262105  -1.320108  4.887243
N    -1.828429  2.317342  -0.019029
C    -0.951743  3.465542  0.226386
H    -2.394195  2.343216  -0.865243
H    -1.555463  4.378408  0.293898
H    -0.241643  3.566152  -0.602966
H    -0.408642  3.311327  1.160873
Pb    -1.125396  -0.452464  3.504746
