28
Energy: -241650.514524 eV PBE+vdW (tier 2 basis)
N    0.712861  -2.966198  2.134367
C    0.323257  -2.051435  1.021342
C    1.574240  -1.799950  0.166150
O    2.617214  -2.448325  0.353529
H    0.924438  -2.397041  2.962394
H    -0.111329  -3.510495  2.407333
H    -0.352568  -2.623307  0.359913
C    -0.443686  -0.781257  1.502205
C    -1.224529  -0.009252  0.412548
C    -2.409795  0.843901  0.914710
N    -2.020363  2.122062  1.515280
C    -2.761771  3.255499  1.466083
N    -2.214176  4.407366  1.866422
N    -4.014954  3.236772  1.004645
H    0.255246  -0.121693  2.040688
H    -1.169811  -1.145415  2.244905
H    -1.669396  -0.730365  -0.291490
H    -0.570937  0.661491  -0.172275
H    -3.020576  0.250553  1.615672
H    -3.036139  1.073015  0.042792
H    -1.257061  2.130365  2.184099
H    -1.210264  4.524699  1.942594
H    -4.502275  4.102210  0.792551
H    -4.575270  2.392632  0.999819
H    -2.784721  5.228422  2.042219
O    1.560720  -0.935678  -0.814620
H    0.703583  -0.472888  -0.916529
Ba    3.192061  -4.475686  1.618651
