28
Energy: -241650.368359 eV PBE+vdW (tier 2 basis)
N    0.988957  -2.817967  2.054458
C    0.366783  -1.964721  0.999121
C    1.455767  -1.635600  -0.032113
O    2.554901  -2.213644  -0.009527
H    1.278568  -2.211939  2.831154
H    0.259442  -3.413413  2.458692
H    -0.345832  -2.606732  0.450036
C    -0.427174  -0.750163  1.570675
C    -1.438982  -0.078803  0.612886
C    -2.568978  0.714370  1.312523
N    -2.193869  2.029857  1.841431
C    -2.734869  3.215820  1.468563
N    -2.712075  4.240454  2.325328
N    -3.270823  3.379843  0.255685
H    0.280007  -0.012303  1.980980
H    -0.993834  -1.154219  2.423710
H    -1.944952  -0.853478  0.014731
H    -0.943378  0.613010  -0.091266
H    -2.984501  0.116236  2.137779
H    -3.394960  0.854916  0.605151
H    -1.710833  2.046385  2.734272
H    -2.591965  4.103571  3.322993
H    -3.834890  4.196209  0.041583
H    -3.090552  2.741541  -0.508131
H    -2.902242  5.189335  2.017840
O    1.236407  -0.776666  -0.993300
H    0.346000  -0.371041  -0.951706
Ba    3.463878  -4.159858  1.186455
