28
Energy: -241650.642434 eV PBE+vdW (tier 2 basis)
N    0.847397  -0.858000  -0.266704
C    0.226965  -0.072283  0.838022
C    1.305897  0.182533  1.906884
O    2.488431  -0.145741  1.709356
H    0.589819  -1.844140  -0.148642
H    0.413587  -0.582461  -1.151728
H    0.000238  0.931565  0.435289
C    -1.078706  -0.676424  1.417817
C    -2.282719  -0.642047  0.457060
C    -3.568358  -1.134539  1.147956
N    -4.718887  -1.040771  0.246864
C    -5.863498  -1.751622  0.358890
N    -6.767414  -1.690468  -0.623425
N    -6.081862  -2.534924  1.420745
H    -1.356389  -0.123534  2.330161
H    -0.874774  -1.707100  1.752146
H    -2.096137  -1.263136  -0.431820
H    -2.433722  0.391834  0.105239
H    -3.746468  -0.542858  2.062301
H    -3.451916  -2.187181  1.444209
H    -4.754541  -0.242683  -0.380860
H    -6.541095  -1.314201  -1.537059
H    -6.863431  -3.182791  1.432610
H    -5.619683  -2.373299  2.307306
H    -7.715131  -2.028436  -0.490694
O    1.028087  0.795432  3.025613
H    0.088693  1.045875  3.131190
Ba    3.839618  -0.837601  -0.199726
