28
Energy: -241650.529036 eV PBE+vdW (tier 2 basis)
N    1.122636  -1.398614  1.292260
C    0.129932  -0.479310  0.665699
C    0.720424  0.940876  0.679322
O    1.868351  1.154258  1.103996
H    0.818327  -1.603522  2.250446
H    1.088174  -2.301754  0.812167
H    0.067310  -0.745791  -0.404733
C    -1.296854  -0.555189  1.278256
C    -2.024469  -1.884538  1.004792
C    -3.368899  -2.054627  1.743802
N    -4.481926  -1.229541  1.255580
C    -5.577986  -1.690792  0.607355
N    -6.709678  -0.981634  0.647722
N    -5.536596  -2.834246  -0.083353
H    -1.905719  0.273288  0.881321
H    -1.219363  -0.373531  2.363697
H    -1.398676  -2.729457  1.331807
H    -2.173639  -2.009386  -0.079163
H    -3.242976  -1.837325  2.814601
H    -3.675243  -3.107214  1.690717
H    -4.589778  -0.310881  1.673725
H    -6.881676  -0.285355  1.364972
H    -4.665220  -3.274741  -0.347752
H    -6.388580  -3.271570  -0.419668
H    -7.480847  -1.182638  0.018688
O    0.052199  1.958248  0.202767
H    -0.835577  1.733770  -0.139589
Ba    3.840352  -0.201784  1.605566
