28
Energy: -241650.681850 eV PBE+vdW (tier 2 basis)
N    0.419671  0.476863  0.193886
C    -0.105068  0.373339  1.593050
C    1.085317  0.498421  2.544562
O    2.228933  0.798191  2.152568
H    0.453490  -0.473382  -0.195651
H    -0.288321  0.948290  -0.377568
H    -0.719987  1.269117  1.784282
C    -0.965172  -0.909119  1.814371
C    -1.947696  -0.953460  3.007676
C    -3.318690  -0.308566  2.723302
N    -4.233316  -0.373581  3.866426
C    -5.311151  -1.174619  3.999274
N    -6.251309  -0.861652  4.895878
N    -5.455240  -2.269494  3.242176
H    -0.281076  -1.767573  1.888528
H    -1.533820  -1.055600  0.882313
H    -1.504091  -0.500613  3.903643
H    -2.098943  -2.011971  3.262899
H    -3.809523  -0.787035  1.864376
H    -3.212967  0.754648  2.459349
H    -4.103819  0.315341  4.601076
H    -6.330632  0.070861  5.286465
H    -6.338143  -2.769181  3.218118
H    -4.666149  -2.722524  2.800387
H    -6.945650  -1.540323  5.191569
O    0.802602  0.292372  3.804804
H    1.595593  0.404703  4.375969
Ba    3.112159  1.491548  -0.070726
