28
Energy: -241651.522087 eV PBE+vdW (tier 2 basis)
N    1.610179  -1.432324  -0.525157
C    0.881533  -0.889996  0.699444
C    1.777627  0.248578  1.252933
O    1.469158  0.799437  2.345148
H    2.354634  -0.727842  -0.738179
H    2.072309  -2.332183  -0.336472
H    -0.028755  -0.397905  0.322157
C    0.507003  -1.974063  1.717064
C    -0.610734  -2.927231  1.251355
C    -1.031113  -3.907285  2.361734
N    -2.137911  -4.756773  1.914149
C    -2.440515  -5.980239  2.400711
N    -3.361207  -6.721275  1.776577
N    -1.808431  -6.464930  3.475542
H    0.186609  -1.435056  2.620578
H    1.411895  -2.535447  2.004849
H    -0.299987  -3.510712  0.369966
H    -1.485760  -2.328857  0.948906
H    -1.318659  -3.342612  3.264538
H    -0.185703  -4.559457  2.624298
H    -2.847576  -4.325214  1.329024
H    -3.771319  -7.537120  2.219301
H    -1.919449  -7.437223  3.745189
H    -1.373758  -5.855287  4.157281
H    -3.675491  -6.505182  0.837352
O    2.770237  0.617598  0.537316
H    1.002068  -1.552173  -1.344850
Ba    3.282122  2.606775  2.198248
