28
Energy: -241650.527221 eV PBE+vdW (tier 2 basis)
N    2.041411  0.754991  2.657285
C    1.523785  -0.600207  2.311230
C    1.599747  -0.763604  0.783728
O    2.084855  0.127217  0.066439
H    1.243410  1.367893  2.857709
H    2.551867  0.699218  3.542511
H    2.244512  -1.337215  2.708550
C    0.117348  -0.921895  2.890647
C    0.088199  -1.053831  4.424785
C    -1.319957  -1.203990  5.038819
N    -1.984653  -2.496010  4.819500
C    -2.251369  -3.415213  5.778124
N    -3.259510  -4.273611  5.600196
N    -1.509956  -3.483866  6.887923
H    -0.250838  -1.859825  2.444245
H    -0.583847  -0.138193  2.557076
H    0.517183  -0.151334  4.887340
H    0.725069  -1.896093  4.737183
H    -1.987822  -0.419593  4.653468
H    -1.257418  -1.032782  6.121008
H    -2.543399  -2.586703  3.976913
H    -3.361216  -5.096920  6.185515
H    -1.808311  -4.042432  7.681124
H    -0.604240  -3.039447  6.960414
H    -4.010202  -4.091096  4.943049
O    1.198581  -1.861069  0.197516
H    0.847811  -2.539879  0.807204
Ba    3.482959  2.102485  0.416497
