28
Energy: -241650.839656 eV PBE+vdW (tier 2 basis)
N    -0.607345  1.788815  1.368912
C    0.878000  1.812147  1.531007
C    1.496466  2.011419  0.148998
O    0.857695  2.530865  -0.787452
H    -0.902089  0.824651  1.175630
H    -1.026644  2.000943  2.280216
H    1.115101  2.767754  2.036227
C    1.510820  0.718836  2.422821
C    1.420108  -0.748146  1.966103
C    2.167785  -1.648891  2.968317
N    2.114175  -3.060203  2.580481
C    2.293167  -4.104232  3.420318
N    2.073603  -5.345744  2.975404
N    2.654668  -3.905403  4.692133
H    1.051336  0.827161  3.417437
H    2.566547  0.997063  2.557064
H    1.870603  -0.866364  0.967626
H    0.374473  -1.088081  1.900527
H    1.703865  -1.553209  3.960766
H    3.214697  -1.310740  3.049767
H    2.172621  -3.275406  1.589527
H    2.388373  -6.156807  3.497696
H    2.635342  -4.668621  5.361148
H    3.127617  -3.060088  4.987907
H    1.569311  -5.524589  2.114792
O    2.752592  1.665670  0.053359
H    3.130315  1.905804  -0.822810
Ba    -1.462203  3.462398  -0.827917
