28
Energy: -241651.436640 eV PBE+vdW (tier 2 basis)
N    -0.543899  1.093273  1.786662
C    0.534268  0.350642  2.567759
C    1.864008  0.633866  1.821079
O    1.839150  1.501028  0.882031
H    -1.114945  0.459350  1.211394
H    -0.025183  1.732231  1.139428
H    0.615966  0.860567  3.540363
C    0.219398  -1.135586  2.776226
C    -0.974995  -1.421856  3.707613
C    -1.172736  -2.937365  3.924684
N    -2.391383  -3.264296  4.670252
C    -2.473326  -3.889173  5.864942
N    -3.598965  -4.531161  6.189751
N    -1.448971  -3.871310  6.726421
H    1.137052  -1.578232  3.190618
H    0.071577  -1.617833  1.794947
H    -1.907205  -1.009728  3.286935
H    -0.826187  -0.923402  4.677969
H    -0.313102  -3.374133  4.449339
H    -1.229550  -3.451689  2.953215
H    -3.266327  -3.194653  4.158306
H    -3.794962  -4.801900  7.148256
H    -4.280425  -4.806986  5.490911
H    -1.445476  -4.478157  7.539637
H    -0.723024  -3.168679  6.680095
O    2.916548  0.044572  2.190443
H    -1.177529  1.641490  2.381802
Ba    4.455224  1.326119  0.585919
