28
Energy: -241650.588322 eV PBE+vdW (tier 2 basis)
N    1.243771  -0.132491  -0.127386
C    0.316156  0.347598  0.940207
C    1.175220  0.798365  2.131051
O    2.407247  0.914014  2.025164
H    1.312751  -1.154703  -0.057244
H    0.798831  0.026835  -1.036506
H    -0.149924  1.277032  0.566489
C    -0.814263  -0.673197  1.269006
C    -2.068145  -0.134241  1.992369
C    -3.215091  -1.166988  1.967274
N    -4.409375  -0.648945  2.635422
C    -5.351220  -1.394974  3.258789
N    -5.333404  -2.729733  3.177928
N    -6.287622  -0.781550  3.987319
H    -0.387191  -1.522042  1.826163
H    -1.139093  -1.072239  0.295988
H    -2.406730  0.796044  1.508409
H    -1.877346  0.097151  3.055476
H    -2.899377  -2.079306  2.492541
H    -3.441016  -1.436738  0.922034
H    -4.669388  0.314592  2.442957
H    -4.897836  -3.211294  2.400531
H    -7.127025  -1.268052  4.285953
H    -6.191640  0.184383  4.280331
H    -5.935018  -3.290333  3.773665
O    0.627405  1.118616  3.273910
H    -0.344715  1.000480  3.281599
Ba    4.014036  0.820713  0.169563
