28
Energy: -241650.885176 eV PBE+vdW (tier 2 basis)
N    1.898750  -0.125927  0.422951
C    0.629340  -0.354788  1.182959
C    1.012994  -0.638579  2.635139
O    2.138121  -0.359816  3.091296
H    2.172398  -1.018419  -0.007138
H    1.681385  0.474666  -0.378929
H    0.100915  0.615002  1.225252
C    -0.314065  -1.398842  0.521186
C    -1.812092  -1.262393  0.857528
C    -2.655624  -2.280883  0.070725
N    -4.076929  -2.142689  0.400535
C    -5.106334  -2.536979  -0.377898
N    -6.351476  -2.175465  -0.050692
N    -4.889289  -3.258654  -1.483503
H    0.044197  -2.412995  0.757979
H    -0.190606  -1.270296  -0.565395
H    -2.157609  -0.246434  0.612229
H    -1.975263  -1.412202  1.934006
H    -2.307762  -3.304578  0.290133
H    -2.539911  -2.106828  -1.009144
H    -4.313065  -1.874398  1.351180
H    -6.535863  -1.432464  0.613607
H    -5.636870  -3.420603  -2.150570
H    -4.052093  -3.816050  -1.600061
H    -7.158581  -2.619768  -0.475733
O    0.061915  -1.158061  3.366968
H    0.350120  -1.275361  4.300233
Ba    4.137300  0.700806  2.037159
