28
Energy: -241650.816750 eV PBE+vdW (tier 2 basis)
N    0.388620  1.504802  2.543491
C    0.351290  0.063103  2.143463
C    1.007213  -0.038334  0.764237
O    1.760890  0.851086  0.324599
H    -0.496086  1.937701  2.250836
H    0.359977  1.550163  3.566900
H    1.049801  -0.471127  2.813525
C    -1.049074  -0.606428  2.267283
C    -1.008595  -2.135805  2.476237
C    -2.361703  -2.861951  2.367558
N    -3.195380  -2.768258  3.571895
C    -4.090647  -3.701454  3.962795
N    -4.631189  -3.621681  5.184564
N    -4.426372  -4.708900  3.151627
H    -1.649765  -0.356692  1.378833
H    -1.543240  -0.122299  3.124006
H    -0.542106  -2.375765  3.444055
H    -0.371916  -2.590736  1.707260
H    -2.148215  -3.927121  2.207898
H    -2.915686  -2.498772  1.485473
H    -3.222769  -1.890846  4.079857
H    -4.204456  -3.074414  5.922694
H    -4.948734  -5.505892  3.501289
H    -4.297069  -4.657245  2.148561
H    -5.444680  -4.173443  5.436367
O    0.748841  -1.135194  0.102727
H    1.236384  -1.164993  -0.751434
Ba    2.500663  3.030497  1.280405
