28
Energy: -241651.378297 eV PBE+vdW (tier 2 basis)
N    -0.042726  0.693295  2.580558
C    0.935122  -0.475451  2.539444
C    2.138823  0.011632  1.691120
O    3.053678  -0.805318  1.394851
H    -0.406319  0.890096  3.521455
H    0.497358  1.518728  2.230533
H    1.317982  -0.590785  3.565666
C    0.301606  -1.789367  2.067444
C    -0.697158  -2.416806  3.059837
C    -1.121140  -3.833212  2.624272
N    -1.961508  -4.488190  3.633367
C    -3.060073  -5.246456  3.416745
N    -3.404181  -6.165826  4.323128
N    -3.814609  -5.083438  2.324161
H    1.143460  -2.477818  1.901870
H    -0.162072  -1.639509  1.077815
H    -1.597470  -1.793395  3.179321
H    -0.223673  -2.479057  4.053067
H    -0.226545  -4.453079  2.451706
H    -1.663226  -3.802642  1.671544
H    -1.540234  -4.603080  4.551388
H    -2.748686  -6.508884  5.016662
H    -4.545439  -5.749019  2.095487
H    -3.784771  -4.236109  1.772876
H    -4.330373  -6.581292  4.328957
O    2.173807  1.248804  1.372814
H    -0.844696  0.552222  1.951758
Ba    4.581062  0.950958  0.323152
