28
Energy: -241651.513681 eV PBE+vdW (tier 2 basis)
N    2.620133  -0.346353  1.188112
C    2.210863  -0.573356  2.639034
C    2.760683  -1.974178  3.015806
O    3.547961  -2.540366  2.182568
H    3.030643  0.580125  1.017063
H    1.833420  -0.472828  0.536795
H    2.789323  0.147654  3.237939
C    0.710616  -0.378047  2.888588
C    0.228585  1.082433  2.788056
C    -1.262106  1.217337  3.147666
N    -1.701590  2.611300  3.045112
C    -2.745149  3.159000  3.704940
N    -2.911046  4.485110  3.679089
N    -3.591379  2.392516  4.402191
H    0.526468  -0.763171  3.902070
H    0.137825  -1.030671  2.208285
H    0.382886  1.471632  1.766964
H    0.818906  1.716978  3.466596
H    -1.418597  0.887196  4.184789
H    -1.868163  0.571670  2.489809
H    -1.299434  3.177515  2.303990
H    -2.168059  5.112343  3.392236
H    -3.784166  4.913332  3.969226
H    -3.714774  1.409173  4.194482
H    -4.274631  2.811886  5.024882
O    2.461504  -2.474461  4.134355
H    3.328447  -1.089649  0.982325
Ba    4.012831  -4.503120  3.883030
