28
Energy: -241650.547533 eV PBE+vdW (tier 2 basis)
N    1.490841  -1.242221  0.139732
C    0.232781  -0.439849  0.242023
C    0.547482  0.832123  1.038496
O    1.651258  0.997087  1.583186
H    1.387318  -2.077258  0.727028
H    1.561215  -1.614263  -0.812040
H    -0.034671  -0.104011  -0.774253
C    -0.946211  -1.284392  0.814626
C    -2.361779  -0.672906  0.776622
C    -3.426025  -1.724882  1.169919
N    -4.767217  -1.158359  1.335015
C    -5.893745  -1.533309  0.686418
N    -7.078294  -1.327741  1.267163
N    -5.838384  -2.096988  -0.525917
H    -0.698367  -1.576927  1.848036
H    -0.949357  -2.210352  0.218600
H    -2.592142  -0.281696  -0.227502
H    -2.445521  0.162828  1.489716
H    -3.141159  -2.200944  2.120752
H    -3.473560  -2.530202  0.426129
H    -4.919999  -0.605766  2.174263
H    -7.167482  -1.170554  2.265421
H    -5.036524  -1.985367  -1.132359
H    -6.661404  -2.527657  -0.934835
H    -7.941676  -1.364880  0.734122
O    -0.332656  1.796868  1.141607
H    -1.164268  1.627029  0.656267
Ba    3.901544  0.101593  1.168764
