28
Energy: -241651.276594 eV PBE+vdW (tier 2 basis)
N    1.026058  -1.744807  0.463414
C    0.884913  -0.421150  1.202807
C    2.322227  0.083534  1.481042
O    3.271345  -0.460717  0.819591
H    0.949341  -2.553462  1.094914
H    1.985349  -1.751354  0.055523
H    0.494810  0.286850  0.453754
C    -0.120426  -0.452331  2.361334
C    0.108317  -1.459881  3.502464
C    -1.007843  -1.317136  4.556533
N    -0.892481  -2.321454  5.615989
C    -1.915471  -2.776042  6.374864
N    -1.714155  -3.822585  7.181657
N    -3.124842  -2.210539  6.303573
H    -1.120018  -0.604770  1.925575
H    -0.127051  0.571493  2.763117
H    1.089137  -1.288588  3.973576
H    0.096261  -2.500666  3.137075
H    -1.984064  -1.454602  4.069652
H    -0.982816  -0.299637  4.981008
H    0.039811  -2.551106  5.946929
H    -2.378620  -4.062517  7.910285
H    -0.912603  -4.433784  7.075766
H    -3.928047  -2.649658  6.742632
H    -3.252032  -1.257601  5.984816
O    2.493984  1.067068  2.253551
H    0.328626  -1.860668  -0.284173
Ba    4.926293  1.458111  1.511730
