28
Energy: -241650.885199 eV PBE+vdW (tier 2 basis)
N    0.282104  1.829441  1.936239
C    0.256675  0.375955  2.294068
C    1.392952  -0.301474  1.528457
O    2.332377  0.344591  1.026255
H    -0.379756  1.974312  1.163402
H    -0.132899  2.352383  2.714221
H    0.561295  0.301442  3.353961
C    -1.143646  -0.281276  2.139830
C    -1.403577  -1.524599  3.012855
C    -2.859989  -2.003692  2.882343
N    -3.107342  -3.153969  3.755746
C    -4.100939  -4.054909  3.605642
N    -4.105922  -5.156889  4.362980
N    -5.058606  -3.869492  2.690011
H    -1.321901  -0.511225  1.077687
H    -1.873684  0.494901  2.417639
H    -1.200451  -1.271181  4.066490
H    -0.729687  -2.346374  2.739254
H    -3.058571  -2.313775  1.845858
H    -3.549573  -1.178421  3.129450
H    -2.604897  -3.187145  4.637824
H    -3.287209  -5.452806  4.882023
H    -5.714137  -4.612062  2.468900
H    -5.280832  -2.949604  2.330083
H    -4.930283  -5.743924  4.435504
O    1.323246  -1.605943  1.475401
H    2.103011  -1.988661  1.013604
Ba    2.830238  2.791393  0.999276
