28
Energy: -241650.208359 eV PBE+vdW (tier 2 basis)
N    1.256463  -1.845144  0.666811
C    0.327005  -0.955411  1.423349
C    1.065988  0.347621  1.760762
O    2.299796  0.437633  1.645806
H    1.258576  -2.771968  1.102131
H    0.883829  -2.002388  -0.273304
H    -0.518586  -0.677867  0.771619
C    -0.215636  -1.617113  2.722839
C    -1.295616  -2.708280  2.533016
C    -2.738122  -2.162383  2.503770
N    -3.753003  -3.205333  2.337804
C    -4.649589  -3.618929  3.261077
N    -5.762873  -4.236247  2.857678
N    -4.438736  -3.414916  4.567013
H    -0.600477  -0.835171  3.395912
H    0.646352  -2.044547  3.258410
H    -1.201988  -3.421796  3.363627
H    -1.107767  -3.296404  1.620759
H    -2.873228  -1.444672  1.679725
H    -2.961480  -1.611832  3.427974
H    -3.899446  -3.559833  1.397418
H    -6.100073  -4.166903  1.903468
H    -5.182751  -3.567287  5.240546
H    -3.511196  -3.269663  4.943954
H    -6.338410  -4.764547  3.506122
O    0.417838  1.400752  2.186607
H    -0.553475  1.295429  2.226995
Ba    4.066606  -0.774802  0.482114
