28
Energy: -241650.524474 eV PBE+vdW (tier 2 basis)
N    0.719939  0.342824  0.054749
C    0.096780  -0.094215  1.336129
C    1.127438  -0.960655  2.083835
O    2.325340  -0.943721  1.751562
H    0.469856  -0.328853  -0.679786
H    0.285561  1.222187  -0.239410
H    0.008086  0.809837  1.967030
C    -1.314520  -0.729887  1.224986
C    -2.371053  0.224330  0.629889
C    -3.839620  -0.131131  0.917417
N    -4.311135  -1.322346  0.197934
C    -5.474742  -1.961776  0.478127
N    -5.801545  -3.054669  -0.218468
N    -6.270600  -1.533972  1.461725
H    -1.651384  -1.003288  2.239614
H    -1.255236  -1.671553  0.657373
H    -2.229308  0.337614  -0.456725
H    -2.231367  1.230299  1.055840
H    -4.451239  0.745721  0.648489
H    -3.968768  -0.310906  1.994976
H    -3.980494  -1.437097  -0.756456
H    -5.131934  -3.533366  -0.809399
H    -6.230512  -0.583583  1.810010
H    -7.062718  -2.090656  1.768284
H    -6.733013  -3.454765  -0.168161
O    0.794552  -1.687817  3.115261
H    -0.159620  -1.666131  3.329156
Ba    3.705259  0.320577  0.178018
