28
Energy: -241650.943490 eV PBE+vdW (tier 2 basis)
N    0.351054  -0.702222  0.229939
C    0.607950  0.032927  1.540282
C    2.138883  0.255530  1.620543
O    2.807965  0.087901  0.542683
H    -0.494712  -0.370457  -0.253122
H    0.259721  -1.718686  0.362977
H    0.189393  1.041167  1.391996
C    -0.112517  -0.600337  2.740885
C    0.380094  -1.983774  3.200912
C    -0.598324  -2.745205  4.113472
N    -0.801633  -2.096828  5.415013
C    -1.836195  -2.366291  6.247880
N    -1.968428  -1.657686  7.373797
N    -2.737878  -3.302490  5.938735
H    -1.185472  -0.638797  2.492418
H    -0.031633  0.127509  3.559244
H    1.360546  -1.893953  3.693434
H    0.545867  -2.660406  2.345673
H    -0.212969  -3.768741  4.249165
H    -1.577785  -2.817412  3.618154
H    0.015622  -1.685730  5.857505
H    -2.605397  -1.947903  8.108784
H    -1.461887  -0.793175  7.524554
H    -3.593026  -3.397414  6.478195
H    -2.530582  -4.053919  5.291784
O    2.653909  0.675033  2.693226
H    1.188238  -0.537427  -0.369223
Ba    4.933905  1.194511  1.576655
