28
Energy: -241650.439921 eV PBE+vdW (tier 2 basis)
N    0.898690  1.070333  2.090027
C    0.747598  -0.306923  2.638895
C    1.875584  -1.175430  2.052026
O    2.817832  -0.655416  1.429480
H    0.287967  1.165625  1.270792
H    0.523308  1.736915  2.770508
H    0.988965  -0.248479  3.716330
C    -0.666622  -0.932478  2.504279
C    -1.758968  -0.186722  3.298676
C    -3.042854  -1.001856  3.562711
N    -3.940231  -1.182638  2.413722
C    -5.238046  -0.797128  2.358143
N    -5.684197  0.231535  3.085312
N    -6.077586  -1.444720  1.544613
H    -0.625516  -1.965690  2.889515
H    -0.927755  -1.014279  1.436747
H    -2.021457  0.762023  2.807146
H    -1.361206  0.070742  4.293515
H    -3.612350  -0.516625  4.364254
H    -2.781494  -1.998403  3.951533
H    -3.683634  -1.896836  1.738998
H    -5.059582  0.903787  3.511192
H    -6.988218  -1.060474  1.312186
H    -5.882429  -2.381187  1.207714
H    -6.679052  0.402796  3.190926
O    1.912561  -2.467465  2.235429
H    1.155498  -2.826729  2.739775
Ba    3.658195  1.609719  1.073556
