28
Energy: -241650.487305 eV PBE+vdW (tier 2 basis)
N    0.799524  -0.520589  -0.080946
C    0.290556  -0.285267  1.302840
C    1.393005  -0.712387  2.283519
O    2.504931  -1.085988  1.874437
H    0.425391  -1.416757  -0.414263
H    0.375159  0.174883  -0.702437
H    0.208327  0.808806  1.432601
C    -1.120254  -0.904793  1.548781
C    -1.855892  -0.431132  2.822685
C    -3.391591  -0.553568  2.799484
N    -3.868540  -1.938169  2.910720
C    -5.152380  -2.313711  2.680545
N    -5.483190  -3.603550  2.791311
N    -6.070572  -1.417893  2.308610
H    -1.046525  -2.002604  1.520431
H    -1.721589  -0.608770  0.675989
H    -1.663361  0.642004  2.984616
H    -1.492015  -0.960623  3.721101
H    -3.775532  -0.131148  1.859483
H    -3.785018  0.055718  3.629638
H    -3.352409  -2.547403  3.540150
H    -4.783013  -4.332376  2.865096
H    -6.991265  -1.715798  2.000414
H    -5.959116  -0.427450  2.489308
H    -6.453577  -3.900815  2.808458
O    1.213443  -0.645705  3.577761
H    0.329150  -0.316466  3.837349
Ba    3.725928  -0.845108  -0.243549
