27
Energy: -105277.717367 eV PBE+vdW (tier 2 basis)
C    -0.145665  1.046745  0.188710
C    -0.159389  1.121591  1.684765
O    0.202300  2.209160  2.257747
H    -0.881580  1.766929  -0.197583
H    -0.389451  0.051103  -0.194450
H    0.834382  1.358687  -0.193688
N    -0.547058  0.033729  2.335145
C    -0.901424  -0.286056  3.723443
C    -0.373060  0.588597  4.855950
O    0.782809  1.116734  4.843799
H    -0.812204  -0.823159  1.772163
H    -2.001621  -0.259275  3.768899
C    -0.450096  -1.751040  4.002464
C    -1.014568  -2.744419  2.969382
O    -1.249936  -2.392865  1.803232
N    -1.202967  -4.001516  3.395648
H    -0.747664  -2.041008  5.018310
H    0.648446  -1.802932  3.959171
H    -1.004688  -4.303058  4.341867
H    -1.509641  -4.701977  2.725365
N    -1.142610  0.716584  5.934626
C    -2.498223  0.207234  6.178019
H    -0.691557  1.194803  6.713502
H    -3.182141  0.502295  5.373873
H    -2.859442  0.650452  7.110132
H    -2.505956  -0.884002  6.291487
Sr    1.731684  2.891086  3.733325
