27
Energy: -105278.000265 eV PBE+vdW (tier 2 basis)
C    0.733946  0.416421  0.147178
C    -0.298669  0.299742  1.228196
O    -0.570003  -0.773504  1.786539
H    0.428191  -0.219310  -0.694935
H    1.683604  0.011516  0.518898
H    0.889103  1.438296  -0.215013
N    -0.949981  1.454032  1.593996
C    -2.105104  1.513999  2.488630
C    -1.792860  1.199122  3.971272
O    -2.297589  1.960648  4.872699
H    -0.669560  2.322883  1.151708
H    -2.412515  2.567457  2.488472
C    -3.286881  0.662783  1.937735
C    -4.678173  1.079639  2.370689
O    -4.894711  1.826021  3.373893
N    -5.694911  0.618184  1.654075
H    -3.147666  -0.397990  2.197991
H    -3.238647  0.702577  0.840119
H    -5.557429  0.023018  0.842578
H    -6.651465  0.845686  1.914427
N    -1.047355  0.157557  4.248824
C    -0.634369  -0.255831  5.586047
H    -0.764382  -0.407550  3.409899
H    0.403939  -0.600678  5.540270
H    -1.260320  -1.086602  5.938496
H    -0.710503  0.584454  6.281311
Sr    -4.300689  2.862430  5.331006
