27
Energy: -105277.744363 eV PBE+vdW (tier 2 basis)
C    0.441953  -1.365920  0.525433
C    -0.016394  -0.532671  1.690290
O    0.530069  -0.529816  2.789894
H    1.534711  -1.321944  0.458241
H    0.001028  -1.072154  -0.433963
H    0.178286  -2.414218  0.727086
N    -1.120605  0.283654  1.463280
C    -1.838064  0.887282  2.591011
C    -3.113825  1.528054  2.039395
O    -3.131491  2.745398  1.661358
H    -1.623131  0.158340  0.589652
H    -2.132850  0.092538  3.295238
C    -0.989872  1.873303  3.451735
C    0.036106  2.704137  2.709034
O    -0.284496  3.805882  2.153858
N    1.278172  2.263605  2.684720
H    -0.477925  1.272734  4.209228
H    -1.663810  2.562293  3.979234
H    1.491064  1.330906  3.047839
H    2.009305  2.799033  2.222245
N    -4.210183  0.790675  1.946061
C    -4.407801  -0.611515  2.337558
H    -5.026128  1.281467  1.579320
H    -3.533170  -1.218819  2.085695
H    -5.266318  -0.999430  1.781412
H    -4.621173  -0.689202  3.411400
Sr    -2.152807  4.786770  1.340834
