27
Energy: -105277.904178 eV PBE+vdW (tier 2 basis)
C    -0.402943  1.560842  -0.374586
C    -0.124802  1.123502  1.024364
O    1.032082  1.313045  1.543466
H    -1.429757  1.350568  -0.688921
H    0.293290  1.050023  -1.054219
H    -0.209764  2.638210  -0.466266
N    -1.088419  0.539821  1.717453
C    -0.998572  -0.044147  3.046377
C    -2.192224  -1.060362  3.055893
O    -3.043245  -0.952460  2.174854
H    -2.003355  0.296971  1.290450
H    -0.038940  -0.569932  3.149407
C    -1.165461  1.005675  4.190611
C    0.007060  1.130194  5.139530
O    1.201006  1.182507  4.716659
N    -0.248132  1.223997  6.437842
H    -2.088815  0.814883  4.752169
H    -1.296989  1.998599  3.733213
H    -1.195149  1.199917  6.803002
H    0.509752  1.371030  7.101011
N    -2.241742  -1.982221  4.035718
C    -1.290749  -2.231827  5.109302
H    -3.068198  -2.576117  3.991703
H    -1.529753  -1.660837  6.018623
H    -0.265947  -1.999557  4.794536
H    -1.315105  -3.296499  5.364041
Sr    2.693870  1.543175  3.000766
