27
Energy: -105277.988706 eV PBE+vdW (tier 2 basis)
C    0.020831  -0.059104  -0.017533
C    0.014068  -0.058062  1.474740
O    1.095083  0.055199  2.130048
H    0.682217  -0.856660  -0.380818
H    0.448012  0.891994  -0.366042
H    -0.973572  -0.186190  -0.457540
N    -1.162646  -0.164998  2.114805
C    -1.308696  -0.050426  3.570073
C    -0.951264  -1.383144  4.265013
O    0.272916  -1.646750  4.481223
H    -2.000102  -0.261299  1.546026
H    -0.534662  0.648705  3.910609
C    -2.646062  0.565984  3.979894
C    -2.568367  0.845071  5.494936
O    -1.548578  0.525954  6.111933
N    -3.642644  1.424781  6.058332
H    -3.512936  -0.069583  3.735601
H    -2.795811  1.506647  3.429385
H    -4.453187  1.720646  5.527232
H    -3.617632  1.643868  7.049968
N    -1.899726  -2.257581  4.546377
C    -1.663054  -3.544090  5.206690
H    -2.865446  -1.983927  4.393914
H    -0.818405  -4.056109  4.735521
H    -2.561938  -4.157597  5.104504
H    -1.446318  -3.389476  6.271547
Sr    2.265336  -0.665121  3.964441
