27
Energy: -105277.862036 eV PBE+vdW (tier 2 basis)
C    -0.312777  -0.042938  -0.067844
C    -0.348212  -0.107093  1.421859
O    0.614084  -0.623021  2.080857
H    0.579902  0.510390  -0.389617
H    -1.200456  0.430684  -0.499717
H    -0.220227  -1.062288  -0.468107
N    -1.407676  0.383720  2.072678
C    -1.524689  0.345615  3.530563
C    -2.977834  0.549041  4.068808
O    -3.146496  1.346980  4.989451
H    -2.142985  0.830738  1.529931
H    -1.211672  -0.666548  3.837481
C    -0.603804  1.402753  4.195608
C    0.025568  0.839633  5.445586
O    1.069662  0.112730  5.344617
N    -0.553694  1.079200  6.604528
H    -1.196096  2.298520  4.411584
H    0.209114  1.673448  3.512010
H    -1.443343  1.579757  6.625031
H    -0.173790  0.704256  7.471104
N    -3.976454  -0.185461  3.534740
C    -3.923608  -1.296047  2.587612
H    -4.883460  0.024748  3.948682
H    -4.070288  -0.967262  1.549012
H    -4.726101  -1.999475  2.833072
H    -2.976313  -1.842063  2.665444
Sr    2.191384  -1.002073  3.687411
