27
Energy: -105278.228334 eV PBE+vdW (tier 2 basis)
C    -0.524883  -0.769750  0.417492
C    -0.090081  -0.449792  1.808551
O    1.110980  -0.103865  2.052879
H    0.122449  -1.551094  -0.001565
H    -0.388560  0.125644  -0.205867
H    -1.569513  -1.090749  0.354759
N    -0.990190  -0.518494  2.796196
C    -0.708682  -0.167420  4.194328
C    0.120072  -1.290893  4.869292
O    1.392469  -1.148433  4.900437
H    -1.904034  -0.926846  2.601041
H    -0.024920  0.691945  4.166695
C    -1.976810  0.319967  4.923464
C    -3.182364  -0.617080  4.814851
O    -3.029479  -1.806964  4.481006
N    -4.381936  -0.092124  5.090383
H    -2.234223  1.315772  4.535242
H    -1.737907  0.458485  5.989049
H    -4.513726  0.876096  5.359895
H    -5.198553  -0.697674  5.073449
N    -0.508106  -2.341901  5.337920
C    0.122965  -3.488696  5.983801
H    -1.534461  -2.355542  5.135746
H    0.174078  -4.334890  5.285727
H    -0.483724  -3.785883  6.845892
H    1.129455  -3.223444  6.317183
Sr    2.923688  -0.344376  3.416156
