27
Energy: -105278.921768 eV PBE+vdW (tier 2 basis)
C    1.279484  -1.916840  1.610759
C    0.546465  -0.717981  2.123100
O    1.141088  0.374431  2.315385
H    1.757672  -1.666136  0.654765
H    0.644889  -2.798565  1.474735
H    2.086371  -2.161295  2.315756
N    -0.770122  -0.858152  2.390119
C    -1.681755  0.130641  2.987065
C    -2.062003  1.224822  1.960479
O    -1.204891  1.957180  1.405772
H    -1.170492  -1.773090  2.204487
H    -2.595816  -0.443429  3.177567
C    -1.189663  0.619827  4.401935
C    -1.080483  2.113259  4.666607
O    -0.246324  2.824851  4.052495
N    -1.862352  2.636205  5.609247
H    -0.179028  0.225154  4.568067
H    -1.831998  0.150608  5.155687
H    -1.754244  3.615637  5.864121
H    -2.506771  2.075836  6.156264
N    -3.357636  1.339133  1.679041
C    -3.891639  2.309233  0.719007
H    -4.013606  0.697364  2.113362
H    -4.982435  2.242883  0.730166
H    -3.524222  2.088684  -0.290664
H    -3.586529  3.324531  0.996488
Sr    0.954038  2.678208  2.039184
