27
Energy: -105278.015965 eV PBE+vdW (tier 2 basis)
C    -0.012306  3.397998  1.406238
C    0.180616  2.295202  2.394212
O    1.301159  2.164030  2.997881
H    0.224209  4.362035  1.874932
H    -1.026583  3.431786  0.996869
H    0.701758  3.259045  0.581804
N    -0.827884  1.462675  2.620748
C    -0.810444  0.200837  3.352067
C    -1.740481  -0.721007  2.481184
O    -2.579914  -0.164235  1.775064
H    -1.673228  1.498113  2.022800
H    0.216573  -0.187716  3.397020
C    -1.437834  0.295828  4.758943
C    -0.712032  1.127394  5.796923
O    0.549026  1.250795  5.804894
N    -1.450179  1.685878  6.747863
H    -1.500431  -0.722660  5.179086
H    -2.476392  0.643346  4.662911
H    -2.461447  1.592107  6.766768
H    -1.009804  2.171206  7.525832
N    -1.577253  -2.046092  2.614506
C    -2.404294  -3.027751  1.907964
H    -0.805845  -2.395273  3.173442
H    -2.804602  -3.758753  2.619416
H    -1.812687  -3.548433  1.145166
H    -3.229037  -2.498232  1.423980
Sr    2.533331  1.841877  4.827488
