27
Energy: -105277.911278 eV PBE+vdW (tier 2 basis)
C    -0.508325  1.850248  -0.052238
C    -0.108047  1.219590  1.240545
O    1.125285  1.176722  1.578627
H    -0.116469  2.874385  -0.102947
H    -1.592309  1.867722  -0.201214
H    -0.043311  1.288436  -0.875064
N    -1.055038  0.706252  2.015987
C    -0.893786  -0.142092  3.191868
C    -2.054846  -1.186366  3.033683
O    -3.035013  -0.836050  2.378313
H    -2.026704  0.631780  1.666987
H    0.095451  -0.617618  3.173905
C    -1.136457  0.603163  4.521813
C    -0.134359  1.667246  4.920593
O    1.089078  1.600539  4.598090
N    -0.579068  2.661010  5.679148
H    -1.134052  -0.134526  5.342156
H    -2.149047  1.031054  4.508707
H    -1.553745  2.729062  5.957180
H    0.065696  3.350364  6.058335
N    -1.943946  -2.372023  3.659038
C    -0.780612  -2.933965  4.337693
H    -2.753090  -2.976655  3.529221
H    0.057765  -3.101670  3.646709
H    -1.065437  -3.904899  4.752975
H    -0.448297  -2.310300  5.179174
Sr    2.773683  1.451594  3.054711
