27
Energy: -105277.816634 eV PBE+vdW (tier 2 basis)
C    0.082560  0.141437  -0.035086
C    -0.344160  0.592844  1.334055
O    -0.281416  1.752762  1.726010
H    1.181145  0.090017  -0.055031
H    -0.214263  0.894776  -0.772690
H    -0.316425  -0.837957  -0.323317
N    -0.850106  -0.401816  2.177254
C    -0.928133  -0.138010  3.617496
C    -1.269758  -1.447589  4.330336
O    -2.420319  -1.980282  4.217615
H    -0.654542  -1.360642  1.900255
H    0.055686  0.206250  3.979395
C    -1.921910  1.008134  3.999552
C    -3.121269  1.162789  3.087714
O    -4.127798  0.387176  3.186016
N    -3.105277  2.146868  2.210879
H    -1.353124  1.941794  4.009928
H    -2.301861  0.841007  5.017642
H    -2.245885  2.675793  2.055592
H    -3.901636  2.308407  1.598619
N    -0.312842  -1.995426  5.062633
C    -0.415660  -3.241442  5.821363
H    0.573875  -1.497709  5.112245
H    -1.304366  -3.789957  5.502037
H    -0.479580  -3.023128  6.895068
H    0.477183  -3.848383  5.634982
Sr    -4.642084  -1.739414  3.730594
