27
Energy: -105277.49762 eV PBE+vdW (tier 2 basis)
C    -0.092235  -0.653672  -0.252422
C    0.183480  -0.076926  1.115867
O    1.220938  0.455033  1.439175
H    0.726055  -0.352360  -0.912112
H    -1.041290  -0.300082  -0.679247
H    -0.112483  -1.753723  -0.225791
N    -0.866027  -0.130252  2.076345
C    -2.026583  -0.984331  2.044443
C    -3.342546  -0.172498  2.032787
O    -4.468911  -0.771422  2.082693
H    -0.531467  0.175021  2.991476
H    -2.018058  -1.518141  1.081138
C    -1.999803  -2.045030  3.207318
C    -2.456374  -3.432229  2.815030
O    -3.663615  -3.668321  2.500726
N    -1.561017  -4.409807  2.800682
H    -2.626561  -1.712755  4.047245
H    -0.969642  -2.087566  3.578876
H    -0.593214  -4.261541  3.069660
H    -1.843261  -5.357451  2.557454
N    -3.226714  1.132699  1.936750
C    -4.311225  2.106259  1.866600
H    -2.256579  1.460310  1.887409
H    -5.270291  1.597543  1.987153
H    -4.283944  2.619302  0.897356
H    -4.184990  2.849015  2.663028
Sr    -5.688359  -2.669958  2.137822
