27
Energy: -105277.938554 eV PBE+vdW (tier 2 basis)
C    0.405763  -0.728121  0.216543
C    -0.172314  0.197051  1.244576
O    0.486345  1.072457  1.819200
H    0.716745  -0.128532  -0.650260
H    -0.288491  -1.505033  -0.121953
H    1.311899  -1.193950  0.622045
N    -1.511455  0.047273  1.541341
C    -2.203617  1.021922  2.376572
C    -1.945664  0.768784  3.886494
O    -2.890990  0.476842  4.700132
H    -2.028416  -0.731257  1.145094
H    -1.730412  1.994605  2.157288
C    -3.693353  1.071052  1.967338
C    -4.472896  2.261344  2.497450
O    -5.047386  2.222132  3.626212
N    -4.545620  3.351000  1.745314
H    -4.212565  0.159424  2.294612
H    -3.721312  1.082160  0.869589
H    -4.128170  3.400648  0.821166
H    -5.069774  4.161081  2.070227
N    -0.689863  0.882691  4.252388
C    -0.163046  0.642859  5.590913
H    -0.032951  1.108347  3.466360
H    -0.038943  1.592631  6.128353
H    0.818912  0.167298  5.500437
H    -0.834038  -0.014237  6.151666
Sr    -4.889389  1.007530  5.573901
