27
Energy: -105277.955382 eV PBE+vdW (tier 2 basis)
C    0.840061  2.886106  1.513341
C    0.778886  1.587124  2.256614
O    1.796015  1.163259  2.893433
H    1.165993  3.687998  2.188392
H    -0.111848  3.174184  1.055633
H    1.598706  2.799415  0.722472
N    -0.369935  0.905742  2.217511
C    -0.682218  -0.444298  2.732188
C    -2.225308  -0.584291  2.695877
O    -2.914424  0.080059  3.485356
H    -1.124324  1.353033  1.701134
H    -0.214229  -1.177978  2.057819
C    -0.157394  -0.756110  4.159816
C    -0.158141  0.368684  5.187155
O    0.944006  0.687452  5.749004
N    -1.295646  0.961636  5.469556
H    0.865947  -1.137087  4.090707
H    -0.764159  -1.583267  4.558798
H    -2.130928  0.715272  4.892679
H    -1.334950  1.688648  6.180382
N    -2.718834  -1.436767  1.788241
C    -4.147202  -1.713877  1.631701
H    -2.073631  -1.934273  1.182223
H    -4.342506  -2.778008  1.809800
H    -4.470178  -1.453034  0.616922
H    -4.699927  -1.112581  2.357909
Sr    2.989169  1.092961  4.845333
