28
Energy: -173810.2065379  eV PBE+vdW (tier 2 basis)
C    -0.27173  1.00975  0.13782
C    -0.43661  0.36807  1.47410
O    0.44396  -0.48590  1.85793
H    0.70084  0.73472  -0.27578
H    -1.06671  0.67169  -0.54207
H    -0.36394  2.10257  0.20075
N    -1.49385  0.62672  2.25888
C    -2.39541  1.80505  2.30676
C    -2.97355  2.17783  0.91397
O    -2.59694  3.18850  0.33104
H    -1.52743  0.06625  3.11078
H    -3.22939  1.47534  2.94388
C    -1.72320  3.02890  2.95526
C    -1.28360  2.84881  4.43007
C    -0.20551  1.79082  4.54689
O    -0.51344  0.62903  5.00121
O    0.94871  2.03072  4.05790
H    -2.44328  3.85681  2.91618
H    -0.86888  3.34730  2.34463
H    -2.12690  2.57126  5.07303
H    -0.87168  3.80307  4.78195
N    -3.89465  1.32467  0.39394
C    -4.50382  0.15647  1.01924
H    -4.27041  1.63617  -0.49797
H    -5.08281  0.41872  1.91692
H    -5.19502  -0.29384  0.30079
H    -3.75683  -0.60489  1.27946
Cd    1.24630  -0.16910  3.85271
