28
Energy: -173810.5652048  eV PBE+vdW (tier 2 basis)
C    0.33541  -0.06442  0.12160
C    -0.02610  0.24034  1.55093
O    0.84527  0.77900  2.27509
H    -0.44006  -0.61000  -0.42656
H    1.26260  -0.65051  0.11391
H    0.54455  0.88050  -0.39643
N    -1.27843  -0.11316  1.92626
C    -1.97620  -0.07460  3.22428
C    -2.15621  1.37761  3.71838
O    -1.34604  2.29822  3.44834
H    -1.82004  -0.53300  1.17925
H    -2.99226  -0.40302  2.96905
C    -1.41276  -1.15784  4.23586
C    -1.22129  -0.81439  5.73451
C    -0.15155  0.26222  5.79204
O    0.99123  -0.03221  5.30447
O    -0.50591  1.46054  6.04398
H    -0.43638  -1.47745  3.85483
H    -2.08088  -2.02521  4.16673
H    -0.87376  -1.72659  6.23479
H    -2.13918  -0.47186  6.22420
N    -3.26453  1.61069  4.42285
C    -3.52929  2.88804  5.08055
H    -3.91753  0.84952  4.57364
H    -3.41579  3.70843  4.36402
H    -2.82595  3.03498  5.91050
H    -4.55376  2.87838  5.46187
Cd    0.77783  1.90278  4.17904
