28
Energy: -173810.3987578  eV PBE+vdW (tier 2 basis)
 C    0.06596   -0.40877    3.38143
 C   -1.07908    0.54591    3.41219
 O   -0.82990    1.76508    3.73272
 H    0.50475   -0.42675    4.39011
 H    0.83379   -0.04943    2.68851
 H   -0.23513   -1.42593    3.11411
 N   -2.35316    0.12602    3.27469
 C   -2.85218   -0.82743    2.27800
 C   -2.00837   -0.66103    0.97940
 O   -1.25842    0.31057    0.85550
 H   -3.05760    0.82056    3.54310
 H   -2.75310   -1.85635    2.65537
 C   -4.36349   -0.54562    2.03776
 C   -4.73892    0.69181    1.17946
 C   -4.08410    1.95763    1.70574
 O   -3.29797    2.60933    0.93539
 O   -4.19301    2.24232    2.94725
 H   -4.84755   -0.47190    3.02167
 H   -4.80340   -1.42387    1.55110
 H   -5.82993    0.81424    1.21977
 H   -4.44937    0.56223    0.13107
 N   -2.14064   -1.59789    0.01603
 C   -2.95181   -2.80916    0.00242
 H   -1.59855   -1.38990   -0.81932
 H   -3.04385   -3.23639    1.00713
 H   -2.45522   -3.55587   -0.62604
 H   -3.95716   -2.63076   -0.40520
Cd   -2.09522    3.16326    2.68999
