28
Energy: -173809.6964109  eV PBE+vdW (tier 2 basis)
C    -1.07293  -0.27754  -0.10260
C    -0.64307  0.49601  1.12621
O    0.51493  0.81355  1.34000
H    -0.19311  -0.41141  -0.73680
H    -1.84723  0.24524  -0.68062
H    -1.46356  -1.26980  0.16461
N    -1.62600  0.86214  2.04381
C    -3.01462  0.41804  2.08097
C    -3.81354  1.66436  2.51357
O    -4.09836  1.88146  3.73828
H    -1.23967  1.26653  2.89551
H    -3.31499  0.19088  1.04888
C    -3.18902  -0.86033  2.92938
C    -4.53628  -1.62373  2.81815
C    -5.58373  -0.74818  3.46692
O    -6.20231  0.09546  2.73619
O    -5.63043  -0.71934  4.74669
H    -2.96969  -0.64483  3.98379
H    -2.40514  -1.54911  2.58397
H    -4.45277  -2.57113  3.36131
H    -4.80512  -1.82172  1.77420
N    -4.11564  2.57070  1.58684
C    -3.78745  2.54804  0.16307
H    -4.54555  3.41907  1.94904
H    -4.23587  3.42965  -0.30263
H    -4.20507  1.65770  -0.32308
H    -2.70127  2.58266  0.01070
Cd    -6.09201  1.42968  4.57301
