28
Energy: -173810.4547665  eV PBE+vdW (tier 2 basis)
C    0.24641  -0.72617  0.35199
C    0.01698  -0.26377  1.75742
O    0.99123  -0.26892  2.58914
H    0.94209  -0.03530  -0.14404
H    0.72861  -1.71147  0.37797
H    -0.67418  -0.78521  -0.23734
N    -1.21475  0.11761  2.09128
C    -1.72556  0.42115  3.42818
C    -2.88429  -0.59500  3.63884
O    -3.51543  -0.98319  2.65644
H    -1.97456  -0.11508  1.44259
H    -0.91055  0.26432  4.14415
C    -2.32051  1.84631  3.58161
C    -1.50753  3.04162  3.02766
C    -0.02192  2.84693  3.22764
O    0.40232  2.44970  4.36922
O    0.74434  2.92240  2.20797
H    -2.49709  1.98899  4.65550
H    -3.30524  1.87376  3.09350
H    -1.82496  3.95628  3.54762
H    -1.68264  3.19035  1.95782
N    -3.14028  -0.93679  4.91752
C    -4.24026  -1.81350  5.30281
H    -2.53311  -0.57770  5.64598
H    -3.85921  -2.73094  5.76861
H    -4.90982  -1.30290  6.00591
H    -4.79702  -2.07508  4.39852
Cd    2.06792  1.46962  3.25448
