28
Energy: -173810.0322458  eV PBE+vdW (tier 2 basis)
C    -0.35252  1.13754  -0.18265
C    -0.15363  0.45110  1.15053
O    0.92421  0.34682  1.70446
H    0.60121  1.57985  -0.48069
H    -1.11455  1.92854  -0.13417
H    -0.66049  0.41903  -0.95657
N    -1.29623  -0.07128  1.77850
C    -2.61602  -0.22209  1.19723
C    -3.49436  1.03536  1.42386
O    -4.54816  1.30399  0.75379
H    -1.06208  -0.64943  2.58300
H    -2.52126  -0.30408  0.10290
C    -3.31067  -1.51457  1.73053
C    -3.56117  -2.61471  0.65613
C    -4.48864  -1.94819  -0.32988
O    -5.71233  -1.78898  0.00716
O    -3.96123  -1.31219  -1.31013
H    -4.27295  -1.27344  2.20067
H    -2.67973  -1.95060  2.51632
H    -2.63068  -2.92408  0.16839
H    -4.04296  -3.47692  1.12941
N    -3.08590  1.85814  2.37324
C    -3.73637  3.09870  2.77317
H    -2.21062  1.57874  2.82140
H    -4.24250  2.96888  3.73837
H    -2.98296  3.88819  2.86951
H    -4.47244  3.38131  2.01643
Cd    -5.51865  0.23766  -0.87813
