28
Energy: -173809.7606417  eV PBE+vdW (tier 2 basis)
C    -0.14166  -0.32217  0.01225
C    -0.23215  -0.10223  1.50381
O    0.75362  0.07946  2.21278
H    0.55763  0.40727  -0.41141
H    -1.10315  -0.25446  -0.51025
H    0.28331  -1.31921  -0.16736
N    -1.50876  -0.11029  2.02642
C    -1.86379  -0.17063  3.43952
C    -2.28004  1.17549  4.07488
O    -3.11929  1.09588  5.04338
H    -2.26764  -0.29417  1.37952
H    -2.82798  -0.69895  3.45618
C    -0.92964  -1.07891  4.32145
C    0.22149  -0.49758  5.17632
C    -0.40506  0.32906  6.28121
O    -1.15479  -0.26918  7.13140
O    -0.35622  1.60105  6.18971
H    -1.58137  -1.65306  4.99078
H    -0.48036  -1.79182  3.61992
H    0.90870  0.10808  4.58179
H    0.76125  -1.34260  5.62134
N    -1.89797  2.36509  3.63234
C    -0.83675  2.75659  2.70320
H    -2.36398  3.13079  4.11579
H    -1.20650  2.77968  1.67079
H    0.01569  2.07503  2.77913
H    -0.51078  3.76253  2.98438
Cd    -2.43180  1.53566  7.09318
