28
Energy: -173809.4885945  eV PBE+vdW (tier 2 basis)
C    0.43562  0.16156  -0.10408
C    0.17542  -0.30997  1.30579
O    0.99539  -0.96678  1.93337
H    0.16361  1.21140  -0.26376
H    -0.11805  -0.46299  -0.81967
H    1.50367  0.03716  -0.30184
N    -1.05366  -0.05976  1.90571
C    -2.17294  0.81953  1.58476
C    -2.63408  0.73694  0.11280
O    -2.90998  1.75641  -0.58610
H    -1.08374  -0.47076  2.83723
H    -3.04038  0.35380  2.09242
C    -2.09176  2.21260  2.26530
C    -0.87655  3.14215  2.02747
C    -1.02800  3.75650  0.65396
O    -2.02512  4.52844  0.45082
O    -0.29984  3.31197  -0.29936
H    -2.09873  1.99251  3.34260
H    -3.01732  2.76705  2.06065
H    0.07861  2.61263  2.10634
H    -0.90626  3.93617  2.78326
N    -2.87675  -0.47344  -0.40113
C    -2.82948  -1.78876  0.23536
H    -3.21316  -0.44212  -1.36101
H    -3.44340  -2.47014  -0.36134
H    -3.24447  -1.75190  1.24871
H    -1.80628  -2.18048  0.28500
Cd    -2.12427  3.58187  -1.55862
