28
Energy: -173809.8958592  eV PBE+vdW (tier 2 basis)
 C   -0.50312   -0.07389   -0.09129
 C    0.17248    0.27277    1.19131
 O    1.44442    0.08925    1.28157
 H   -0.67403   -1.16170   -0.08944
 H    0.14555    0.15715   -0.94146
 H   -1.47598    0.41608   -0.19964
 N   -0.50562    0.71160    2.25150
 C   -1.84992    1.27806    2.48243
 C   -2.53604    2.18989    1.42378
 O   -3.76075    2.13074    1.42680
 H    0.01534    0.64495    3.13150
 H   -2.56986    0.45184    2.55850
 C   -1.82017    1.96378    3.87822
 C   -0.78761    3.09414    4.12847
 C    0.64709    2.62003    3.94677
 O    1.40403    3.21630    3.10762
 O    1.01942    1.52796    4.51003
 H   -1.67412    1.18021    4.63555
 H   -2.82345    2.37560    4.04390
 H   -0.95540    3.96277    3.48268
 H   -0.90451    3.42585    5.17013
 N   -1.87459    3.03278    0.58241
 C   -0.47024    3.36692    0.40147
 H   -2.53536    3.52400   -0.01601
 H   -0.40734    4.39943    0.04023
 H    0.02069    2.72614   -0.34754
 H    0.08911    3.32642    1.33887
Cd    2.48232    1.27990    2.78739
