28
Energy: -173809.1110788  eV PBE+vdW (tier 2 basis)
C    -0.36139  1.78792  1.59446
C    0.70919  0.74854  1.35519
O    1.82054  1.03514  0.92507
H    -1.20992  1.65001  0.91032
H    0.07621  2.77276  1.41352
H    -0.74342  1.74838  2.62343
N    0.42077  -0.57494  1.63992
C    -0.88538  -1.15841  1.88282
C    -0.69374  -2.29972  2.92130
O    -0.60934  -3.47579  2.55386
H    1.18961  -1.20526  1.41616
H    -1.51122  -0.37970  2.33757
C    -1.63271  -1.65512  0.62323
C    -0.87365  -2.68570  -0.20510
C    -1.63528  -3.17236  -1.43437
O    -0.94282  -3.49925  -2.45584
O    -2.90269  -3.26865  -1.40176
H    -1.85197  -0.76643  0.01269
H    -2.60065  -2.06949  0.93635
H    -0.70304  -3.59584  0.39579
H    0.10416  -2.32598  -0.54701
N    -0.59981  -1.94233  4.21915
C    -0.64246  -0.60164  4.79164
H    -0.44232  -2.72386  4.84987
H    -0.55114  -0.69474  5.87767
H    -1.59649  -0.09837  4.58255
H    0.18874  0.01957  4.43269
Cd    -2.82031  -4.16497  -3.48644
