28
Energy: -173810.4134480  eV PBE+vdW (tier 2 basis)
C    -0.94662  0.22571  0.28928
C    -0.39278  0.65058  1.61706
O    0.48858  1.54572  1.67282
H    -0.16861  -0.35750  -0.22339
H    -1.14612  1.11623  -0.31738
H    -1.85544  -0.38181  0.36077
N    -0.90375  0.03275  2.70710
C    -0.55882  0.18904  4.12967
C    0.05565  1.58454  4.41264
O    1.28856  1.82756  4.42026
H    -1.60214  -0.67875  2.51548
H    -1.53048  0.20156  4.64056
C    0.22239  -1.00179  4.79571
C    1.03369  -1.99347  3.92072
C    2.11110  -1.21148  3.19987
O    2.98391  -0.61324  3.91877
O    1.95403  -0.96304  1.96008
H    0.90157  -0.57353  5.54411
H    -0.51858  -1.59674  5.34549
H    1.47942  -2.73192  4.59864
H    0.40484  -2.51894  3.19406
N    -0.80074  2.55761  4.74297
C    -2.25824  2.51227  4.84246
H    -0.34483  3.44477  4.94831
H    -2.70738  2.10255  3.93014
H    -2.61948  3.53778  4.96193
H    -2.58885  1.93304  5.71522
Cd    2.50510  1.15949  2.63264
