28
Energy: -173810.1364398  eV PBE+vdW (tier 2 basis)
C    0.15824  0.59198  0.61889
C    -0.12115  0.41203  2.08831
O    0.62655  0.80423  2.98332
H    1.19944  0.31717  0.41586
H    0.04986  1.65631  0.37013
H    -0.50779  0.01098  -0.02964
N    -1.28288  -0.24198  2.42830
C    -1.67784  -0.26380  3.82505
C    -0.55470  -0.80406  4.73560
O    -0.24491  -0.23454  5.83936
H    -1.95779  -0.50676  1.71972
H    -1.78423  0.78322  4.15201
C    -3.03549  -1.00451  4.03378
C    -4.18491  -0.10690  4.58177
C    -3.61632  0.55625  5.81662
O    -3.36127  -0.16756  6.83281
O    -3.15528  1.74922  5.69017
H    -2.90314  -1.84251  4.72967
H    -3.36651  -1.43758  3.08003
H    -4.48814  0.65347  3.85455
H    -5.04255  -0.73943  4.83670
N    0.08682  -1.93491  4.45597
C    -0.02341  -2.81350  3.29554
H    0.81825  -2.15753  5.12846
H    0.32134  -3.80795  3.59685
H    -1.05985  -2.90020  2.96021
H    0.59990  -2.45791  2.46473
Cd    -1.49071  1.08055  7.00251
