28
Energy: -173810.3597790  eV PBE+vdW (tier 2 basis)
C    -0.54769  0.57435  1.05460
C    -0.18909  -0.56637  1.94826
O    1.04042  -0.75889  2.25502
H    0.20668  1.36021  1.16358
H    -1.54587  0.97562  1.25945
H    -0.51675  0.23291  0.00766
N    -1.14381  -1.38117  2.41932
C    -2.48658  -1.61420  1.85704
C    -3.64369  -0.81093  2.51310
O    -4.75437  -0.89765  2.00805
H    -0.81955  -2.11065  3.05800
H    -2.47492  -1.29267  0.80595
C    -2.80598  -3.12075  1.92264
C    -1.97357  -4.03043  0.98834
C    -0.48434  -3.86945  1.22582
O    -0.01255  -4.09741  2.39950
O    0.24540  -3.38831  0.29690
H    -3.86353  -3.22668  1.65127
H    -2.70800  -3.46668  2.96327
H    -2.24458  -5.07593  1.18966
H    -2.18099  -3.81616  -0.06565
N    -3.33012  -0.06336  3.59881
C    -4.31982  0.72840  4.31868
H    -2.37907  -0.08622  3.94711
H    -5.27348  0.63564  3.79056
H    -4.44100  0.36026  5.34539
H    -4.02366  1.78438  4.34737
Cd    1.73351  -2.79686  1.86429
