28
Energy: -173810.3733091  eV PBE+vdW (tier 2 basis)
C    -0.93541  0.19656  0.08401
C    -0.30996  -0.61404  1.16770
O    0.97340  -0.66442  1.25050
H    -1.22863  -0.46897  -0.74384
H    -0.19386  0.90135  -0.30300
H    -1.81890  0.72853  0.45407
N    -1.05743  -1.30070  2.03564
C    -2.47922  -1.65941  1.97166
C    -3.30167  -0.55861  2.72222
O    -2.98938  0.61385  2.54471
H    -0.54882  -1.73400  2.80699
H    -2.79434  -1.58349  0.91996
C    -2.63795  -3.11895  2.44280
C    -1.92984  -4.19173  1.57862
C    -0.43120  -3.96531  1.48220
O    0.25200  -3.85191  2.56299
O    0.09102  -3.77794  0.33519
H    -3.70613  -3.37603  2.42814
H    -2.29697  -3.21073  3.48535
H    -2.09745  -5.17465  2.04095
H    -2.33798  -4.22038  0.56228
N    -4.33878  -0.97031  3.48466
C    -5.21845  -0.03665  4.17909
H    -4.49751  -1.96080  3.61981
H    -6.26640  -0.30023  3.99466
H    -5.02841  -0.04751  5.26047
H    -5.02085  0.96803  3.79489
Cd    1.75712  -2.68353  1.36628
