28
Energy: -173809.4705118  eV PBE+vdW (tier 2 basis)
C    -0.33624  0.42164  0.11562
C    -0.72011  -0.72324  1.01430
O    -0.60595  -1.90482  0.68485
H    0.68059  0.24884  -0.25643
H    -0.38265  1.40049  0.60638
H    -1.00245  0.42658  -0.75715
N    -1.22615  -0.39277  2.25516
C    -1.64782  -1.40354  3.19593
C    -3.11547  -1.89967  2.87860
O    -4.06671  -1.50822  3.54915
H    -1.46653  0.57558  2.44817
H    -1.00566  -2.28193  3.01054
C    -1.54139  -0.92464  4.64152
C    -0.08927  -0.92142  5.11684
C    0.07753  -0.32141  6.51547
O    0.87503  -0.90514  7.31947
O    -0.55814  0.73785  6.81806
H    -2.14978  -1.58989  5.26818
H    -1.98529  0.07490  4.74824
H    0.54390  -0.30116  4.46149
H    0.34449  -1.92751  5.13318
N    -3.17795  -2.75159  1.84095
C    -4.44456  -3.21405  1.28865
H    -2.31570  -2.89454  1.31024
H    -4.29868  -4.20521  0.84697
H    -4.82365  -2.53005  0.51623
H    -5.18274  -3.27347  2.09527
Cd    0.40076  0.65390  8.87781
