28
Energy: -173810.2106651  eV PBE+vdW (tier 2 basis)
 C    0.35745    1.70174    1.91648
 C    0.28808    0.29537    1.42438
 O    1.35686   -0.24290    0.94702
 H   -0.45132    1.95600    2.60799
 H    0.32234    2.38698    1.05683
 H    1.32732    1.84945    2.40538
 N   -0.84523   -0.40618    1.47127
 C   -2.24135    0.05618    1.60829
 C   -3.16140   -1.10320    2.06581
 O   -4.01059   -0.88179    2.91556
 H   -0.74769   -1.39552    1.24646
 H   -2.29654    0.77573    2.43380
 C   -2.76442    0.76384    0.33121
 C   -2.81791   -0.05802   -0.98391
 C   -1.43767   -0.56774   -1.34181
 O   -1.12139   -1.78286   -1.06180
 O   -0.57048    0.25841   -1.77821
 H   -2.16256    1.66727    0.15988
 H   -3.78447    1.10533    0.55521
 H   -3.51215   -0.90163   -0.90592
 H   -3.16560    0.60647   -1.78428
 N   -2.95770   -2.32274    1.48584
 C   -3.80354   -3.45999    1.84149
 H   -2.42930   -2.39191    0.61756
 H   -3.30717   -4.38391    1.52879
 H   -4.79175   -3.39693    1.36471
 H   -3.94963   -3.47206    2.92617
Cd    1.03860   -1.08822   -1.02740
