28
Energy: -173809.0528771  eV PBE+vdW (tier 2 basis)
C    -0.04941  1.10916  0.17132
C    0.04647  0.12343  1.31276
O    1.11349  -0.36235  1.66950
H    0.96224  1.44912  -0.06468
H    -0.67549  1.97650  0.41347
H    -0.46692  0.62800  -0.72380
N    -1.11190  -0.25159  1.97498
C    -2.48538  -0.05951  1.56366
C    -3.29670  0.31262  2.85741
O    -3.88582  -0.56794  3.47832
H    -0.94324  -0.95108  2.69882
H    -2.51938  0.78370  0.86184
C    -3.14542  -1.30162  0.93319
C    -2.47023  -1.72781  -0.37326
C    -3.10434  -3.02355  -0.88380
O    -2.56619  -4.12743  -0.54568
O    -4.15117  -2.95453  -1.60370
H    -4.20442  -1.07069  0.75431
H    -3.12034  -2.11385  1.67244
H    -1.40188  -1.92478  -0.22511
H    -2.60101  -0.97129  -1.15712
N    -3.28019  1.60569  3.24650
C    -2.55233  2.72111  2.65573
H    -3.77887  1.77364  4.11623
H    -2.81330  3.62665  3.21127
H    -2.83922  2.88646  1.60841
H    -1.46462  2.58289  2.72418
Cd    -4.19797  -5.21914  -1.65872
