28
Energy: -173809.4426460  eV PBE+vdW (tier 2 basis)
C    0.15145  0.41253  0.26534
C    -0.04375  0.29814  1.75689
O    0.82892  0.63679  2.56542
H    0.48056  1.42956  0.02325
H    -0.75207  0.17146  -0.30576
H    0.95679  -0.27137  -0.03241
N    -1.23834  -0.20112  2.18528
C    -1.50259  -0.49448  3.57463
C    -2.46176  -1.71174  3.58759
O    -3.30706  -1.82966  2.70166
H    -1.95337  -0.50469  1.52561
H    -0.53964  -0.73153  4.05257
C    -2.18803  0.65524  4.36130
C    -1.31566  1.90470  4.43190
C    -1.88994  2.98518  5.35664
O    -1.75125  4.19638  4.98286
O    -2.44436  2.65887  6.45149
H    -2.40908  0.29860  5.37664
H    -3.15033  0.87955  3.87877
H    -1.14895  2.36480  3.45340
H    -0.31925  1.67896  4.84658
N    -2.31640  -2.56005  4.62682
C    -3.12962  -3.75960  4.78357
H    -1.52483  -2.42839  5.24691
H    -3.34230  -3.92052  5.84624
H    -2.61879  -4.64461  4.38028
H    -4.06672  -3.61630  4.23707
Cd    -2.74110  4.87512  6.88040
