28
Energy: -173810.0176621  eV PBE+vdW (tier 2 basis)
C    -0.24847  -0.46997  -0.04305
C    -0.53095  0.21352  1.25955
O    0.08581  1.29456  1.53348
H    0.83452  -0.62651  -0.12949
H    -0.54794  0.19060  -0.86765
H    -0.76089  -1.43206  -0.15080
N    -1.41232  -0.36594  2.08816
C    -1.72547  0.05583  3.45662
C    -0.95884  -0.79345  4.52247
O    -0.16188  -0.20576  5.24205
H    -1.82554  -1.23043  1.75054
H    -1.24285  1.02679  3.59423
C    -3.22338  0.21235  3.77596
C    -4.03125  1.23018  2.91324
C    -3.12809  2.34496  2.43454
O    -2.88657  2.44252  1.18753
O    -2.48154  3.02873  3.30868
H    -3.25886  0.52571  4.82781
H    -3.74889  -0.74965  3.71626
H    -4.84280  1.64337  3.52565
H    -4.47303  0.75367  2.03303
N    -1.16359  -2.13761  4.61142
C    -2.19432  -2.97921  4.02150
H    -0.61020  -2.55444  5.35638
H    -1.89987  -4.02502  4.15566
H    -2.29613  -2.82364  2.93940
H    -3.17904  -2.84123  4.49144
Cd    -0.86504  3.21893  1.80286
