28
Energy: -173810.0323588  eV PBE+vdW (tier 2 basis)
C    -0.28124  1.53818  1.58661
C    -0.17300  0.14914  2.17580
O    0.77713  -0.23692  2.82975
H    -1.20608  2.04878  1.89110
H    -0.26009  1.50541  0.48729
H    0.57680  2.11986  1.93226
N    -1.25280  -0.72324  1.96142
C    -2.36640  -0.52188  1.05469
C    -3.54545  0.21401  1.74233
O    -4.48633  0.80464  1.11189
H    -1.03943  -1.67644  2.24805
H    -2.05245  0.15091  0.24105
C    -2.82038  -1.87731  0.42685
C    -2.59787  -1.99479  -1.11075
C    -3.45602  -0.89336  -1.68265
O    -4.72335  -1.06589  -1.70244
O    -2.92071  0.26113  -1.83833
H    -3.88253  -2.06449  0.63165
H    -2.26139  -2.68982  0.90960
H    -2.94108  -2.97798  -1.44994
H    -1.54639  -1.84939  -1.38033
N    -3.53112  0.21207  3.06335
C    -4.51945  0.83141  3.93589
H    -2.71273  -0.24480  3.47172
H    -4.01139  1.46523  4.67168
H    -5.09197  0.05954  4.46548
H    -5.20116  1.43819  3.33511
Cd    -4.85290  1.04316  -1.02112
