28
Energy: -173809.3353210  eV PBE+vdW (tier 2 basis)
C    -0.30760  -0.63360  0.29188
C    -0.30247  -0.75136  1.79541
O    0.50590  -1.44257  2.41022
H    -0.50806  -1.62277  -0.13943
H    0.69344  -0.33369  -0.03997
H    -1.04597  0.08028  -0.09111
N    -1.28260  -0.04749  2.46632
C    -1.36936  -0.04797  3.90968
C    -2.76453  -0.53920  4.39398
O    -3.51479  0.23076  5.00486
H    -1.92219  0.53795  1.93761
H    -0.61049  -0.77891  4.23821
C    -1.03560  1.34850  4.46533
C    -1.02777  1.38892  5.99031
C    -0.65025  2.75460  6.56147
O    -0.01115  2.75991  7.66632
O    -1.00035  3.81783  5.96090
H    -1.75192  2.08897  4.08463
H    -0.04506  1.61129  4.06896
H    -0.35815  0.64221  6.43421
H    -2.04503  1.20705  6.37768
N    -3.11538  -1.81817  4.14123
C    -2.39426  -2.83784  3.39130
H    -4.05841  -2.04237  4.45007
H    -2.73612  -3.82009  3.73377
H    -1.31449  -2.77165  3.56350
H    -2.58211  -2.76195  2.31025
Cd    -0.09139  5.00101  7.67126
