28
Energy: -173810.1673982  eV PBE+vdW (tier 2 basis)
C    0.07520  -1.22461  -0.72083
C    -0.12151  0.03860  0.07739
O    -0.38073  1.13083  -0.42390
H    0.72056  -1.01022  -1.57978
H    -0.89866  -1.54253  -1.11698
H    0.49639  -2.05018  -0.13497
N    -0.02618  -0.07999  1.44826
C    -0.23594  1.11316  2.23339
C    0.85138  2.17706  1.94190
O    2.07897  1.92985  1.67464
H    0.37477  -0.91199  1.87001
H    -1.14245  1.57640  1.82008
C    -0.55012  0.86307  3.74223
C    0.12206  -0.32337  4.48907
C    1.60113  -0.28261  4.19728
O    2.29510  0.67959  4.65583
O    2.05069  -1.08473  3.29647
H    -1.63256  0.69832  3.81819
H    -0.32831  1.78733  4.29194
H    -0.29169  -1.28581  4.17081
H    -0.05971  -0.19907  5.56300
N    0.47189  3.45006  1.90515
C    -0.89160  3.98048  1.91864
H    1.22138  4.09986  1.67552
H    -1.46181  3.59571  1.06186
H    -0.82868  5.06899  1.83689
H    -1.40903  3.74017  2.85434
Cd    3.39245  0.57863  2.69658
