28
Energy: -173810.3149432  eV PBE+vdW (tier 2 basis)
C    -2.48164  -1.52510  0.00081
C    -1.35003  -0.74257  0.60934
O    -0.18315  -0.83249  0.20281
H    -2.60109  -1.20666  -1.04314
H    -3.43684  -1.39538  0.52188
H    -2.21500  -2.58842  -0.01431
N    -1.66820  0.09633  1.64452
C    -0.68832  1.03274  2.19539
C    0.23943  0.26763  3.18378
O    0.16029  0.38358  4.45266
H    -2.61795  0.11664  2.00044
H    -0.03880  1.32028  1.35337
C    -1.39877  2.28474  2.73529
C    -0.54309  3.57635  2.84368
C    0.50556  3.33534  3.90661
O    1.61540  2.81575  3.54786
O    0.15694  3.44079  5.13340
H    -1.87260  2.07550  3.70462
H    -2.20301  2.51376  2.02163
H    -1.19188  4.40604  3.14369
H    -0.06143  3.81266  1.88830
N    1.09286  -0.55415  2.59820
C    2.04260  -1.37765  3.32518
H    0.95712  -0.67023  1.57196
H    1.54534  -1.93443  4.12859
H    2.50729  -2.07762  2.62584
H    2.84076  -0.75702  3.76546
Cd    1.50820  1.73059  5.52815
