28
Energy: -173809.3889622  eV PBE+vdW (tier 2 basis)
C    -0.35591  -0.21228  -0.24447
C    -0.16893  0.08362  1.22199
O    0.95562  0.25492  1.71343
H    0.11466  -1.17829  -0.46954
H    0.17570  0.54971  -0.82667
H    -1.40442  -0.24500  -0.56019
N    -1.30840  0.15164  1.97492
C    -1.43502  0.31115  3.42156
C    -1.01105  1.68912  3.99868
O    -1.68603  2.13768  4.92917
H    -2.18188  0.01576  1.47723
H    -2.51664  0.29220  3.60370
C    -0.86196  -0.85503  4.28195
C    0.64239  -0.82792  4.53638
C    1.14409  -2.03808  5.32724
O    2.10038  -1.84592  6.14878
O    0.62640  -3.18251  5.12885
H    -1.15348  -1.79804  3.80203
H    -1.39432  -0.80465  5.24216
H    0.95748  0.06698  5.08454
H    1.21296  -0.84676  3.59324
N    0.06962  2.29831  3.48001
C    0.55300  3.57626  3.98244
H    0.63652  1.75747  2.81816
H    1.08497  4.09490  3.17825
H    1.23529  3.44616  4.83480
H    -0.29909  4.17917  4.31398
Cd    2.11042  -4.04341  6.61392
