28
Energy: -173809.8216990  eV PBE+vdW (tier 2 basis)
C    0.59709  0.41469  1.22164
C    -0.25056  -0.74649  1.69531
O    0.21428  -1.80276  2.09066
H    1.63426  0.07445  1.16934
H    0.54602  1.26124  1.92231
H    0.28581  0.77551  0.23124
N    -1.63390  -0.58705  1.65718
C    -2.37343  0.63562  1.43776
C    -2.22899  1.65479  2.59740
O    -1.96030  2.89058  2.38677
H    -2.13417  -1.41162  1.97860
H    -1.91602  1.15002  0.57979
C    -3.86886  0.33588  1.09654
C    -4.33884  0.84748  -0.29533
C    -3.97388  2.31330  -0.32689
O    -4.61029  3.11751  0.43305
O    -2.87391  2.64006  -0.90096
H    -4.53112  0.76561  1.85925
H    -4.01488  -0.75231  1.11382
H    -5.42288  0.71258  -0.38098
H    -3.83260  0.31849  -1.10923
N    -2.30890  1.27102  3.86730
C    -2.58821  -0.04992  4.43404
H    -2.13574  2.02450  4.53071
H    -3.41794  -0.53796  3.91292
H    -2.88936  0.09696  5.47563
H    -1.70096  -0.69458  4.40755
Cd    -2.63911  4.13108  0.73425
