24
Energy: -102733.293609 eV PBE+vdW (tier 2 basis)
C    -0.274781  -0.184471  -0.163933
C    -0.221499  -0.096776  1.325212
O    0.787877  0.412740  1.908637
H    0.611874  -0.715415  -0.534256
H    -0.230271  0.834490  -0.574816
H    -1.176736  -0.680348  -0.536108
N    -1.261846  -0.556826  2.027623
C    -1.475161  -0.411493  3.468832
C    -0.622461  -1.430849  4.269187
O    0.588202  -1.079940  4.494248
H    -2.072595  -0.942859  1.536488
H    -1.046468  0.552530  3.780153
C    -2.997006  -0.309220  3.713488
O    -3.652632  -1.186328  2.803804
H    -3.291914  0.735320  3.530975
H    -3.225431  -0.547443  4.765084
H    -4.600117  -0.975780  2.763800
N    -1.041769  -2.594154  4.731258
C    -2.324891  -3.295426  4.629093
H    -0.321374  -3.083483  5.266283
H    -2.115829  -4.356225  4.453179
H    -2.924131  -2.904842  3.803970
H    -2.876511  -3.200153  5.573526
Sr    2.250472  0.228951  3.632271
