24
Energy: -102733.863071 eV PBE+vdW (tier 2 basis)
C    -0.460819  -0.194806  -0.125437
C    -0.444257  0.039635  1.350722
O    0.522710  0.624678  1.902647
H    -0.389867  0.775071  -0.637222
H    -1.351268  -0.723793  -0.480059
H    0.433919  -0.766634  -0.406011
N    -1.508844  -0.390566  2.065016
C    -1.734169  -0.256792  3.514415
C    -1.614149  1.206664  3.995481
O    -0.538888  1.628676  4.508819
H    -2.239797  -0.863824  1.541290
H    -2.783284  -0.552426  3.662232
C    -0.968148  -1.256199  4.392943
O    0.480118  -1.114738  4.324987
H    -1.232339  -2.269813  4.063620
H    -1.296441  -1.125875  5.434997
H    0.866481  -1.963794  4.598604
N    -2.670388  2.001175  3.878595
C    -3.997200  1.686116  3.338014
H    -2.524670  2.947112  4.232465
H    -3.932175  1.342907  2.298641
H    -4.593162  2.602641  3.353285
H    -4.513184  0.939024  3.955206
Sr    1.626824  1.053557  3.892749
