24
Energy: -102733.395698 eV PBE+vdW (tier 2 basis)
C    -0.109049  -0.853754  0.207522
C    -0.196926  -0.155281  1.525028
O    0.694742  0.675866  1.878475
H    0.877997  -1.319248  0.094891
H    -0.195951  -0.097360  -0.586792
H    -0.887240  -1.609666  0.059707
N    -1.248862  -0.421129  2.314239
C    -1.651778  0.295577  3.530398
C    -0.857899  -0.189559  4.768600
O    0.414662  -0.096266  4.743878
H    -1.901409  -1.124819  1.974095
H    -1.378644  1.356218  3.405943
C    -3.188101  0.191484  3.608443
O    -3.606351  0.760788  4.839542
H    -3.491876  -0.871184  3.533289
H    -3.608697  0.727831  2.743795
H    -4.563118  0.929826  4.818715
N    -1.512372  -0.651817  5.811484
C    -0.897818  -1.117295  7.053855
H    -2.529267  -0.507026  5.800231
H    -0.914730  -0.317913  7.806631
H    0.133465  -1.424062  6.865300
H    -1.472723  -1.969695  7.430499
Sr    2.118944  0.933483  3.637231
