24
Energy: -102733.943372 eV PBE+vdW (tier 2 basis)
C    0.855951  -1.281897  1.826462
C    -0.119686  -0.148797  1.835038
O    0.200599  0.971007  2.307808
H    1.185050  -1.473241  2.856851
H    1.746917  -0.976847  1.260541
H    0.458130  -2.207700  1.398745
N    -1.345627  -0.380613  1.314352
C    -2.497905  0.532971  1.179779
C    -2.189107  1.766959  0.299138
O    -1.627228  2.785714  0.787206
H    -1.495506  -1.318561  0.953585
H    -3.248087  -0.065160  0.641976
C    -3.232132  0.876421  2.485334
O    -2.477197  1.726461  3.395875
H    -3.467356  -0.065025  3.000220
H    -4.173396  1.382666  2.222729
H    -2.938492  1.700583  4.251802
N    -2.560806  1.699853  -0.972934
C    -2.360474  2.758090  -1.964921
H    -3.017731  0.851006  -1.296489
H    -1.635454  2.428394  -2.719394
H    -1.989125  3.654183  -1.463376
H    -3.315047  2.978088  -2.456201
Sr    -0.494293  3.110445  2.791875
