24
Energy: -102733.227362 eV PBE+vdW (tier 2 basis)
C    -0.031006  1.183014  0.184196
C    -0.280724  0.271992  1.343016
O    0.513986  -0.685948  1.580792
H    -0.756404  1.998382  0.098118
H    -0.055244  0.585461  -0.738476
H    0.979583  1.604732  0.262580
N    -1.366563  0.510392  2.099475
C    -1.956556  -0.274305  3.198110
C    -1.105319  -0.293817  4.480329
O    0.057298  -0.811690  4.478459
H    -1.921236  1.310428  1.807845
H    -2.897438  0.235225  3.430308
C    -2.333876  -1.715975  2.790813
O    -2.801772  -2.330224  3.975273
H    -1.460573  -2.248338  2.368395
H    -3.096764  -1.662897  1.999165
H    -3.423962  -3.043633  3.760798
N    -1.606392  0.201659  5.597176
C    -2.940501  0.766153  5.843282
H    -0.994601  0.105521  6.408233
H    -2.975091  1.095059  6.885301
H    -3.716050  0.006583  5.689874
H    -3.125376  1.640395  5.208143
Sr    1.625582  -1.833169  3.195796
