24
Energy: -102732.256804 eV PBE+vdW (tier 2 basis)
C    0.096534  0.402989  0.020628
C    -0.152834  0.064639  1.448659
O    0.795530  0.103775  2.304397
H    0.558742  1.396651  -0.047608
H    -0.810668  0.381706  -0.591667
H    0.821190  -0.315443  -0.390226
N    -1.375917  -0.294825  1.842376
C    -1.685163  -0.845688  3.167406
C    -2.748489  -2.000276  3.096465
O    -2.400694  -3.078646  3.550441
H    -2.088077  -0.382592  1.120412
H    -0.806597  -1.422936  3.490089
C    -2.020621  0.173951  4.254678
O    -0.785106  0.666401  4.913823
H    -2.622648  -0.315584  5.031291
H    -2.559925  1.042412  3.857798
H    -1.079750  1.182063  5.686608
N    -3.947481  -1.764773  2.506119
C    -4.641449  -0.504476  2.248354
H    -4.528966  -2.602958  2.483928
H    -5.320705  -0.242597  3.071892
H    -5.231211  -0.594913  1.329123
H    -3.938927  0.326185  2.110708
Sr    1.568481  0.284343  4.378043
