24
Energy: -102732.268743 eV PBE+vdW (tier 2 basis)
C    -0.075857  0.526203  0.127542
C    -0.245970  0.082843  1.538715
O    0.766434  -0.042674  2.308514
H    -1.025464  0.646188  -0.403891
H    0.537791  -0.217306  -0.402403
H    0.478664  1.473382  0.101241
N    -1.466212  -0.199120  2.001816
C    -1.720036  -0.819488  3.305297
C    -2.814358  -1.949505  3.339624
O    -2.516667  -2.931290  4.003395
H    -2.244100  -0.101306  1.353606
H    -0.834737  -1.428874  3.535595
C    -1.960306  0.152347  4.457778
O    -0.672264  0.686001  4.964324
H    -2.439742  -0.386203  5.285099
H    -2.580353  1.004536  4.152153
H    -0.895562  1.297469  5.689623
N    -3.993670  -1.787230  2.699109
C    -4.533971  -0.637644  1.982313
H    -4.594434  -2.606893  2.776336
H    -4.282039  -0.653448  0.908991
H    -4.217491  0.311849  2.432850
H    -5.626473  -0.662211  2.053665
Sr    1.612815  0.045370  4.366714
