24
Energy: -102732.388528 eV PBE+vdW (tier 2 basis)
C    -0.994573  -2.384425  1.107814
C    -0.624990  -1.506733  2.253251
O    0.506963  -1.635077  2.838520
H    -0.242434  -2.286515  0.313103
H    -1.982697  -2.157801  0.694657
H    -0.975812  -3.432315  1.439619
N    -1.476757  -0.578563  2.678597
C    -1.233580  0.318541  3.817555
C    -2.540836  1.144294  4.107736
O    -2.502789  2.363452  4.015771
H    -2.362072  -0.483792  2.183668
H    -0.995088  -0.298989  4.699588
C    -0.077756  1.301198  3.578459
O    1.122784  0.943315  4.367977
H    -0.419131  2.301535  3.875885
H    0.216453  1.333546  2.523345
H    1.307428  1.683051  4.971298
N    -3.656878  0.444987  4.418743
C    -3.824853  -0.970985  4.733346
H    -4.471831  1.044296  4.543821
H    -4.525606  -1.068522  5.569846
H    -2.877868  -1.423203  5.048627
H    -4.229181  -1.538445  3.882949
Sr    2.365103  -1.071847  3.926822
