24
Energy: -102733.173958 eV PBE+vdW (tier 2 basis)
C    1.031894  0.803755  0.087859
C    0.243448  -0.095623  0.979511
O    0.815352  -0.798695  1.867378
H    1.544612  1.550822  0.710946
H    0.421539  1.322341  -0.658530
H    1.813318  0.224031  -0.420792
N    -1.091495  -0.140783  0.833373
C    -1.999230  -0.860115  1.729082
C    -1.980408  -2.385420  1.449409
O    -1.142010  -3.071919  2.126451
H    -1.504358  0.444509  0.110278
H    -1.582905  -0.788324  2.743941
C    -3.372226  -0.171632  1.773521
O    -4.203759  -1.040491  2.515028
H    -3.760411  0.014639  0.755638
H    -3.238902  0.808283  2.261046
H    -4.993576  -0.565465  2.820699
N    -2.731125  -2.988666  0.547147
C    -3.763689  -2.456530  -0.348416
H    -2.591716  -3.999373  0.517468
H    -3.406874  -1.567468  -0.878141
H    -4.678065  -2.230253  0.212635
H    -3.984089  -3.225858  -1.093396
Sr    0.921678  -2.752764  3.049866
