16
Energy: -239075.717776 eV PBE+vdW (tier 2 basis)
N    0.197628  -1.011054  -0.183073
C    -0.104082  -0.185404  1.020796
C    1.183689  0.406301  1.603254
O    2.293181  0.063224  1.257564
H    0.932181  -1.676276  0.089789
H    0.678461  -0.399656  -0.850290
H    -0.762891  0.635315  0.706556
C    -0.854006  -1.011754  2.100419
C    -1.877263  -1.822527  1.341078
O    -2.795052  -1.201536  0.698447
O    -1.647237  -3.061345  1.122854
H    -1.324820  -0.324872  2.812423
H    -0.171009  -1.681229  2.636731
O    0.913944  1.331305  2.543545
H    1.766456  1.658766  2.895098
Ba    -2.065179  -2.519259  -1.245191
