16
Energy: -239076.534743 eV PBE+vdW (tier 2 basis)
N    -0.326958  0.789175  0.438420
C    0.160315  -0.192421  1.469755
C    1.672713  -0.364225  1.062789
O    2.000305  0.294469  0.047254
H    0.675225  0.862173  -0.111325
H    -0.625829  1.686062  0.827490
H    0.117892  0.274793  2.461188
C    -0.666378  -1.487909  1.474246
C    0.014933  -2.500430  2.392273
O    0.523290  -3.545871  1.875636
O    0.198341  -2.178120  3.611581
H    -0.735512  -1.915726  0.465407
H    -1.677494  -1.276639  1.849797
O    2.417376  -1.101388  1.770034
H    -1.071669  0.417961  -0.157030
Ba    2.553449  -3.053904  3.272485
