16
Energy: -239076.156388 eV PBE+vdW (tier 2 basis)
N    -0.219261  -0.167683  -0.187622
C    -0.287299  -0.080972  1.256414
C    1.075438  -0.313820  1.901574
O    1.286236  -0.249217  3.123751
H    0.439423  0.497540  -0.590323
H    -1.133965  0.009766  -0.600309
H    -0.595890  0.905824  1.662444
C    -1.338225  -1.112013  1.767883
C    -1.410417  -1.100059  3.275989
O    -1.734229  -0.011103  3.870098
O    -0.976033  -2.105467  3.934646
H    -1.090029  -2.112420  1.398576
H    -2.308737  -0.807343  1.352820
O    2.057030  -0.546049  1.044217
H    2.893382  -0.651327  1.542791
Ba    0.103576  -0.479655  5.452050
