16
Energy: -239075.688366 eV PBE+vdW (tier 2 basis)
N    -0.091086  -0.170410  -0.211280
C    -0.119815  -0.137305  1.282546
C    1.088842  0.521800  1.955173
O    1.090094  0.872818  3.108817
H    0.757448  -0.669653  -0.499567
H    0.057712  0.787192  -0.541009
H    -0.998484  0.449839  1.579810
C    -0.294350  -1.565869  1.864481
C    -1.374235  -2.203855  1.024929
O    -2.545850  -1.684973  1.040777
O    -1.042680  -3.044067  0.119379
H    -0.586576  -1.480544  2.917165
H    0.632946  -2.146118  1.788399
O    2.148810  0.631899  1.110716
H    2.881957  1.029874  1.622184
Ba    -2.363735  -1.622627  -1.403517
