16
Energy: -239076.507989 eV PBE+vdW (tier 2 basis)
N    0.393854  -0.272546  0.539244
C    0.093010  -0.106300  2.008974
C    1.284560  -0.679696  2.806195
O    2.176531  -1.309445  2.150006
H    0.041553  0.494702  -0.038234
H    -0.070526  -1.232713  0.276747
H    -0.077561  0.950463  2.242644
C    -1.139040  -0.984805  2.351808
C    -0.735008  -2.412820  1.950771
O    -0.376532  -3.223071  2.884326
O    -0.617538  -2.634705  0.722885
H    -2.014145  -0.656581  1.776475
H    -1.349014  -0.891351  3.420332
O    1.196438  -0.685130  4.065550
H    1.412822  -0.391697  0.428610
Ba    1.779599  -3.193305  3.962669
