16
Energy: -239076.622435 eV PBE+vdW (tier 2 basis)
N    0.110038  0.888588  0.503564
C    0.264857  -0.035789  1.636263
C    1.792014  -0.204751  1.859355
O    2.292541  -0.911626  2.748349
H    -0.307523  0.442450  -0.312378
H    -0.441850  1.712067  0.735216
H    -0.114113  0.429954  2.558278
C    -0.478110  -1.377589  1.439891
C    -0.144085  -2.338566  2.568014
O    -0.404151  -1.985762  3.768493
O    0.536797  -3.385441  2.308196
H    -0.201717  -1.837288  0.482309
H    -1.556575  -1.170135  1.439855
O    2.521078  0.500914  1.043207
H    1.797175  0.969159  0.475615
Ba    1.871624  -2.855185  4.340771
