16
Energy: -239075.392870 eV PBE+vdW (tier 2 basis)
N    -0.424996  0.719966  0.504372
C    -0.091832  -0.086429  1.651189
C    1.417477  -0.002696  1.833525
O    2.233827  0.161650  0.974208
H    -1.423461  0.708657  0.306570
H    0.089889  0.443012  -0.330876
H    -0.570586  0.343402  2.543022
C    -0.540538  -1.601049  1.580949
C    -0.208732  -2.268438  2.883641
O    0.795935  -3.058158  2.972065
O    -0.816926  -1.866401  3.946364
H    -0.049326  -2.107197  0.742603
H    -1.627022  -1.596095  1.430027
O    1.849820  -0.135314  3.182877
H    2.808781  0.052562  3.103616
Ba    1.258689  -2.098469  5.185847
