16
Energy: -239076.280537 eV PBE+vdW (tier 2 basis)
N    -0.022398  0.826963  0.298893
C    -0.277645  0.142188  1.558427
C    0.961863  -0.672760  1.954489
O    1.336393  -1.749498  1.457416
H    0.038405  0.181925  -0.488500
H    0.783066  1.448909  0.329810
H    -0.411988  0.904427  2.336657
C    -1.576558  -0.691467  1.490434
C    -1.385787  -1.959637  0.690013
O    -1.450405  -3.089738  1.284051
O    -0.987682  -1.882488  -0.528651
H    -2.328412  -0.050577  1.009823
H    -1.919798  -0.953195  2.497001
O    1.708508  -0.039905  2.856817
H    2.530971  -0.549246  3.011183
Ba    0.539346  -3.765787  -0.000179
