16
Energy: -239075.956326 eV PBE+vdW (tier 2 basis)
N    -0.449125  0.165592  -0.071329
C    -0.061789  0.001630  1.355805
C    1.194374  -0.860958  1.485729
O    1.854624  -0.963125  2.479628
H    -1.349690  0.651726  -0.107331
H    0.225846  0.777614  -0.535543
H    0.202240  0.960617  1.829082
C    -1.237506  -0.618541  2.167585
C    -1.686520  -1.824277  1.363543
O    -2.614389  -1.690183  0.500389
O    -0.905256  -2.838975  1.351308
H    -2.043669  0.117488  2.266769
H    -0.872929  -0.901101  3.161274
O    1.546181  -1.510646  0.296615
H    2.373334  -1.986241  0.516131
Ba    -0.836551  -2.509289  -1.103484
