34
Energy: -175947.696294 eV PBE+vdW (tier 2 basis)
C    -0.635872  -4.900154  1.786668
C    -0.690241  -4.025871  2.998884
O    0.264071  -3.223507  3.210139
H    -0.566985  -4.261851  0.895268
H    -1.502920  -5.562479  1.691424
H    0.281971  -5.501861  1.818786
N    -1.761974  -4.132558  3.810158
C    -2.058799  -3.250816  4.938508
C    -1.192707  -3.580034  6.179480
O    -0.224376  -2.800982  6.471665
H    -2.486203  -4.783846  3.519586
H    -1.729540  -2.239194  4.653779
C    -3.581985  -3.159261  5.207227
C    -4.327698  -2.428648  4.116237
C    -4.247301  -1.023908  4.008037
C    -5.143213  -3.132696  3.208540
C    -4.946874  -0.341869  3.031881
C    -5.856862  -2.471213  2.222078
C    -5.762839  -1.063875  2.126410
O    -6.421718  -0.340818  1.217345
H    -3.713412  -2.635750  6.166241
H    -4.008106  -4.161963  5.337877
H    -3.652848  -0.453482  4.723919
H    -5.250416  -4.215039  3.297641
H    -4.909912  0.743395  2.951130
H    -6.499142  -3.025693  1.536800
H    -6.984617  -0.895630  0.644515
N    -1.415301  -4.618593  6.971655
C    -2.448118  -5.655956  6.923119
H    -0.761043  -4.673471  7.754375
H    -2.061947  -6.533826  7.450326
H    -2.662692  -5.951736  5.892021
H    -3.367421  -5.327164  7.423671
Cd    1.005544  -1.965596  4.859522
