34
Energy: -175947.840091 eV PBE+vdW (tier 2 basis)
C    0.598718  -0.389732  0.433873
C    0.078514  -0.766062  1.787852
O    0.625849  -1.533902  2.570632
H    1.319945  0.433341  0.548227
H    -0.189110  -0.061930  -0.254576
H    1.139899  -1.239863  0.006259
N    -1.141159  -0.193294  2.185849
C    -1.474751  -0.352333  3.580286
C    -1.766672  -1.836330  3.892033
O    -1.516039  -2.377275  5.035334
H    -1.511109  0.605909  1.677207
H    -0.571668  -0.130122  4.185155
C    -2.614782  0.612879  4.016278
C    -2.831337  0.551855  5.510205
C    -1.824451  0.975909  6.387586
C    -3.972977  -0.059932  6.074238
C    -1.861417  0.632048  7.784358
C    -4.097378  -0.311834  7.437387
C    -3.048068  0.019596  8.319723
O    -3.072668  -0.149062  9.635980
H    -3.544322  0.376078  3.482271
H    -2.314591  1.628183  3.716379
H    -0.974442  1.560449  6.026125
H    -4.792978  -0.355280  5.418177
H    -1.142427  1.064286  8.484152
H    -5.014370  -0.756660  7.826894
H    -3.913687  -0.531021  9.953623
N    -2.338749  -2.557929  2.956487
C    -2.633613  -3.989323  3.042854
H    -2.431195  -2.092535  2.052233
H    -3.398804  -4.231829  2.300430
H    -2.999451  -4.236679  4.043226
H    -1.726136  -4.571658  2.834755
Cd    -0.940842  -1.292692  6.730899
