34
Energy: -175947.693393 eV PBE+vdW (tier 2 basis)
C    0.071774  -1.638502  0.248545
C    -0.035497  -1.281148  1.696639
O    0.990448  -1.395957  2.427418
H    0.440682  -2.668492  0.158583
H    0.824476  -0.988416  -0.218847
H    -0.875319  -1.539437  -0.292667
N    -1.226519  -0.843768  2.156673
C    -1.454279  -0.304739  3.498056
C    -1.494346  -1.419538  4.571488
O    -0.533416  -1.496932  5.407565
H    -1.971048  -0.746248  1.471000
H    -0.566039  0.288245  3.766653
C    -2.649172  0.680993  3.524377
C    -2.772284  1.412835  4.840135
C    -2.062150  2.614718  5.050315
C    -3.613465  0.935854  5.865836
C    -2.182334  3.320790  6.233903
C    -3.747282  1.620923  7.058810
C    -3.031030  2.826646  7.252443
O    -3.218454  3.446461  8.419868
H    -3.588228  0.162567  3.291196
H    -2.473680  1.404921  2.714870
H    -1.429981  3.017958  4.257659
H    -4.198235  0.028232  5.716115
H    -1.645853  4.259830  6.375725
H    -4.407589  1.271475  7.850921
H    -2.718235  4.282854  8.476179
N    -2.478131  -2.304555  4.660017
C    -3.693806  -2.466428  3.861850
H    -2.350425  -2.970789  5.423859
H    -4.537239  -1.915574  4.297998
H    -3.948494  -3.531335  3.850258
H    -3.536597  -2.146862  2.828923
Cd    1.491745  -1.297581  4.573635
