34
Energy: -175947.683955 eV PBE+vdW (tier 2 basis)
C    -0.370470  -1.878021  0.039401
C    -0.241095  -1.238257  1.384824
O    0.901218  -0.849504  1.763627
H    -0.063335  -1.150931  -0.725423
H    -1.387043  -2.221776  -0.180017
H    0.326518  -2.723406  -0.026403
N    -1.357169  -1.098916  2.130544
C    -1.447242  -0.348763  3.383772
C    -0.820785  -1.116525  4.574435
O    0.289014  -0.699890  5.049375
H    -2.226067  -1.414599  1.706990
H    -0.797492  0.533648  3.279784
C    -2.882830  0.182314  3.608251
C    -3.049160  0.954703  4.896231
C    -2.312486  2.134997  5.139566
C    -3.996331  0.542687  5.854113
C    -2.497287  2.868665  6.294564
C    -4.204882  1.264562  7.017480
C    -3.449823  2.437192  7.249480
O    -3.586550  3.199333  8.336995
H    -3.608931  -0.639848  3.575444
H    -3.109818  0.835048  2.749459
H    -1.606817  2.506042  4.394749
H    -4.607606  -0.340874  5.668066
H    -1.947225  3.788917  6.484507
H    -4.954541  0.942867  7.741456
H    -4.277040  2.860863  8.938325
N    -1.370515  -2.191348  5.120508
C    -2.625428  -2.878775  4.819569
H    -0.824097  -2.571493  5.895358
H    -3.453608  -2.465659  5.408623
H    -2.503348  -3.933425  5.086632
H    -2.860947  -2.827058  3.753531
Cd    1.845631  -0.118348  3.613557
