34
Energy: -175947.396279 eV PBE+vdW (tier 2 basis)
C    0.571745  0.155047  0.907678
C    -0.063013  -0.108771  2.230771
O    0.656646  -0.442070  3.221199
H    1.044656  1.149317  0.910227
H    -0.132260  0.082872  0.073052
H    1.385250  -0.569192  0.770123
N    -1.409519  -0.013670  2.387999
C    -2.209810  1.105690  1.900824
C    -1.987478  2.301605  2.871687
O    -1.415273  2.155332  3.994493
H    -1.741061  -0.397355  3.274495
H    -1.835858  1.388405  0.906866
C    -3.704996  0.705808  1.804973
C    -3.948376  -0.453972  0.872626
C    -3.811030  -0.295775  -0.524826
C    -4.348378  -1.708382  1.379079
C    -4.061060  -1.341918  -1.388764
C    -4.607825  -2.772792  0.534099
C    -4.466044  -2.596618  -0.863328
O    -4.703231  -3.559208  -1.753906
H    -4.279212  1.580892  1.465278
H    -4.077327  0.469601  2.812881
H    -3.532446  0.673197  -0.942379
H    -4.481788  -1.841812  2.453076
H    -3.978032  -1.229769  -2.468746
H    -4.929963  -3.734553  0.935175
H    -4.998038  -4.389049  -1.331366
N    -2.444798  3.489855  2.505391
C    -2.338740  4.699836  3.329990
H    -2.922228  3.572156  1.612113
H    -2.695804  5.548983  2.742085
H    -1.295100  4.869498  3.617283
H    -2.949271  4.599949  4.235426
Cd    0.165812  0.858128  4.972602
