34
Energy: -175947.692402 eV PBE+vdW (tier 2 basis)
C    -0.301673  -1.647574  -0.068985
C    -0.231284  -1.068956  1.308053
O    0.884217  -0.653136  1.735272
H    -1.299169  -2.014941  -0.333057
H    0.425796  -2.465332  -0.153386
H    0.001321  -0.875662  -0.790173
N    -1.368808  -1.011314  2.032234
C    -1.501166  -0.330811  3.320596
C    -0.853636  -1.133375  4.475228
O    0.208867  -0.676403  5.014870
H    -2.217708  -1.330039  1.572023
H    -0.894730  0.586903  3.267842
C    -2.955744  0.131982  3.580693
C    -3.075612  0.987973  4.819698
C    -2.710404  2.351417  4.779068
C    -3.581979  0.458910  6.023366
C    -2.838838  3.159298  5.891528
C    -3.723436  1.249177  7.151677
C    -3.350404  2.612027  7.093671
O    -3.461973  3.450979  8.126132
H    -3.634485  -0.727643  3.647706
H    -3.261593  0.713588  2.697650
H    -2.352905  2.792220  3.846884
H    -3.901902  -0.582190  6.069691
H    -2.581216  4.216975  5.866015
H    -4.134311  0.832647  8.072106
H    -3.846002  3.017700  8.912059
N    -1.346849  -2.277946  4.927895
C    -2.529066  -3.037188  4.520724
H    -0.799497  -2.675616  5.693298
H    -2.748541  -2.892558  3.460288
H    -3.405677  -2.766544  5.123093
H    -2.317671  -4.099870  4.679569
Cd    1.745083  0.074301  3.631679
