34
Energy: -175947.987042 eV PBE+vdW (tier 2 basis)
C    -0.324510  0.899279  -0.384386
C    -0.363160  -0.291134  0.517451
O    0.101194  -1.393296  0.013418
H    -0.929665  0.677814  -1.275804
H    0.701699  1.071781  -0.732855
H    -0.714896  1.802234  0.095701
N    -0.887708  -0.151580  1.722353
C    -1.394712  -1.113727  2.701227
C    -2.706614  -0.394672  3.201368
O    -2.757661  0.828749  3.060126
H    -1.340676  0.762810  1.955254
H    -1.627414  -2.070544  2.209216
C    -0.460100  -1.324085  3.932612
C    0.867721  -1.940334  3.584715
C    2.037233  -1.152589  3.462843
C    0.974376  -3.306003  3.286633
C    3.253889  -1.668540  3.026946
C    2.187143  -3.858021  2.731897
C    3.362024  -3.029389  2.663451
O    4.481383  -3.634940  2.290075
H    -0.997119  -1.961484  4.649006
H    -0.313347  -0.353164  4.424174
H    1.989542  -0.095936  3.729530
H    0.137459  -3.985852  3.465336
H    4.135654  -1.026569  2.991585
H    2.309944  -4.938891  2.629848
H    5.255175  -3.038646  2.290612
N    -3.636821  -1.160757  3.780807
C    -4.881667  -0.626335  4.341629
H    -3.512135  -2.167872  3.789346
H    -4.992641  -0.956000  5.380795
H    -5.740832  -0.973172  3.755162
H    -4.836113  0.465037  4.306685
Cd    1.112354  -2.947173  0.886247
