34
Energy: -175947.511031 eV PBE+vdW (tier 2 basis)
C    0.964737  -2.548979  2.054974
C    0.685908  -1.562068  3.140175
O    1.673343  -1.257366  3.908532
H    1.275307  -3.496440  2.520083
H    1.808037  -2.204438  1.443268
H    0.095693  -2.737830  1.415542
N    -0.556356  -1.090235  3.275227
C    -1.121309  -0.354498  4.411380
C    -2.306368  -1.076216  5.143585
O    -2.219105  -1.096479  6.363831
H    -1.218497  -1.434708  2.582492
H    -0.367173  -0.389309  5.206558
C    -1.463031  1.137261  4.120181
C    -0.215446  1.981906  4.085472
C    0.342827  2.463475  2.879978
C    0.498656  2.216387  5.269323
C    1.578693  3.102683  2.822123
C    1.828382  2.773827  5.240123
C    2.346790  3.274308  3.992919
O    3.512590  3.904206  4.058817
H    -2.124045  1.474133  4.931430
H    -2.026898  1.233230  3.183868
H    -0.215831  2.338031  1.951373
H    0.062795  1.969997  6.242048
H    1.945928  3.491722  1.871074
H    2.319725  3.086029  6.165206
H    3.803172  4.257699  3.195819
N    -3.350904  -1.578810  4.448933
C    -3.624443  -1.559512  3.017812
H    -4.045470  -2.022256  5.048003
H    -3.153326  -2.402997  2.486272
H    -3.332835  -0.606487  2.556963
H    -4.704861  -1.653175  2.867130
Cd    2.195315  0.501912  4.874485
