34
Energy: -175948.797598 eV PBE+vdW (tier 2 basis)
C    1.594347  -0.150801  0.976839
C    0.996154  0.169150  2.314398
O    1.778459  0.579594  3.217037
H    2.423089  -0.856503  1.116532
H    2.027832  0.769160  0.560287
H    0.879529  -0.565560  0.258518
N    -0.339622  -0.001394  2.430280
C    -1.325496  0.218732  3.516189
C    -1.303196  1.655382  4.080095
O    -0.364544  2.143045  4.778828
H    -0.769278  -0.332769  1.571229
H    -2.285768  0.127317  2.992703
C    -1.385654  -0.913436  4.600638
C    -0.112408  -1.208862  5.351435
C    0.217062  -0.523186  6.530449
C    0.827814  -2.141631  4.856383
C    1.534680  -0.611697  7.092699
C    2.071149  -2.329692  5.441538
C    2.457540  -1.562145  6.558498
O    3.666371  -1.792640  7.068296
H    -1.719883  -1.819866  4.077837
H    -2.193607  -0.643021  5.295925
H    -0.521225  0.103599  7.035926
H    0.567578  -2.742574  3.984191
H    1.738975  -0.132728  8.053438
H    2.765766  -3.077934  5.061539
H    3.827540  -1.317936  7.904487
N    -2.373657  2.397851  3.825339
C    -2.537271  3.773529  4.306747
H    -3.122748  2.002649  3.265031
H    -2.539207  3.795361  5.402984
H    -3.489791  4.157269  3.933297
H    -1.718424  4.402450  3.938427
Cd    1.478892  1.086290  5.281960
