34
Energy: -175948.751774 eV PBE+vdW (tier 2 basis)
C    1.357384  2.312075  2.725868
C    0.665146  1.075809  3.219937
O    1.161644  -0.036480  2.890146
H    2.358018  2.354044  3.178837
H    0.824458  3.241269  2.952995
H    1.503192  2.230425  1.641612
N    -0.431259  1.274197  3.986738
C    -1.398641  0.398750  4.689427
C    -0.742484  -0.546534  5.712043
O    0.117574  -1.430845  5.412767
H    -0.634418  2.260313  4.121782
H    -1.979970  1.114268  5.280883
C    -2.476170  -0.287959  3.777539
C    -1.968325  -1.202294  2.692797
C    -1.706141  -0.719037  1.393339
C    -1.669952  -2.549285  2.953270
C    -1.093002  -1.493981  0.415140
C    -0.933429  -3.335560  2.012187
C    -0.670345  -2.803322  0.711773
O    -0.066385  -3.623760  -0.146119
H    -3.061610  0.525841  3.329234
H    -3.160602  -0.826594  4.449663
H    -1.993953  0.302220  1.140339
H    -1.981397  -3.018379  3.889557
H    -0.939958  -1.086686  -0.585107
H    -0.779583  -4.403793  2.177210
H    0.048408  -3.221921  -1.027597
N    -1.122082  -0.443861  6.982234
C    -2.057000  0.499040  7.609315
H    -0.667913  -1.118576  7.598936
H    -2.093575  0.267849  8.677512
H    -3.071341  0.389409  7.206764
H    -1.712670  1.535252  7.502073
Cd    0.648754  -2.062662  3.394073
