34
Energy: -175948.68371 eV PBE+vdW (tier 2 basis)
C    0.742503  2.559736  2.531495
C    0.306034  1.240077  3.095573
O    0.922109  0.210635  2.702885
H    0.735097  2.498708  1.435822
H    1.784163  2.739179  2.832244
H    0.127027  3.406260  2.853255
N    -0.710476  1.278252  3.986989
C    -1.436344  0.269090  4.794138
C    -0.514379  -0.569903  5.698467
O    0.356844  -1.384963  5.264072
H    -1.046073  2.222711  4.152638
H    -2.030058  0.889453  5.473880
C    -2.515417  -0.567420  4.019868
C    -2.038828  -1.374853  2.839634
C    -1.996777  -0.813867  1.542385
C    -1.557430  -2.683321  2.994032
C    -1.430257  -1.473818  0.462189
C    -0.864442  -3.345919  1.925933
C    -0.841037  -2.742925  0.630953
O    -0.314089  -3.319160  -0.448107
H    -3.277523  0.150347  3.687713
H    -3.004805  -1.215527  4.761687
H    -2.429884  0.173742  1.379108
H    -1.687381  -3.218405  3.937529
H    -1.439246  -1.034905  -0.534808
H    -0.573040  -4.392268  2.046198
H    -0.029318  -4.238514  -0.292329
N    -0.664656  -0.455499  7.014444
C    -1.565675  0.410052  7.786159
H    -0.040536  -1.060608  7.549455
H    -1.367026  0.232200  8.846716
H    -2.618532  0.168094  7.596004
H    -1.373443  1.470702  7.582682
Cd    0.696894  -1.873364  3.166096
