34
Energy: -175947.896573 eV PBE+vdW (tier 2 basis)
C    1.274467  -0.655941  2.353571
C    0.108687  -0.049045  1.640353
O    -0.091362  -0.362404  0.428299
H    1.173311  -1.749611  2.315776
H    1.357254  -0.338771  3.398500
H    2.198941  -0.404980  1.817249
N    -0.685629  0.789978  2.331146
C    -2.008803  1.286765  1.931018
C    -1.870685  2.617866  1.161553
O    -1.465227  2.630987  -0.045682
H    -0.408591  0.970969  3.292771
H    -2.417396  0.565924  1.204952
C    -2.958398  1.320199  3.152690
C    -3.232531  -0.041176  3.746480
C    -2.589661  -0.454733  4.929613
C    -4.162285  -0.911143  3.138837
C    -2.849033  -1.692484  5.490258
C    -4.441202  -2.152686  3.682437
C    -3.782882  -2.554973  4.868120
O    -3.998327  -3.728521  5.468541
H    -3.905833  1.772742  2.823480
H    -2.538748  1.974071  3.934916
H    -1.900348  0.218989  5.441713
H    -4.697596  -0.598384  2.240845
H    -2.370834  -2.015905  6.413540
H    -5.175675  -2.809374  3.214527
H    -4.672581  -4.259861  5.004064
N    -2.165607  3.759218  1.758018
C    -2.051592  5.072425  1.110797
H    -2.501024  3.731452  2.716394
H    -2.647612  5.090905  0.191242
H    -1.004565  5.283331  0.862970
H    -2.423499  5.830514  1.804136
Cd    -0.829138  0.887658  -1.204121
