34
Energy: -175947.694897 eV PBE+vdW (tier 2 basis)
C    0.433774  -2.094540  0.521804
C    0.075212  -1.211037  1.673968
O    0.848233  -0.253815  1.966938
H    0.509342  -1.477588  -0.384103
H    -0.289967  -2.898731  0.351336
H    1.427652  -2.527276  0.695939
N    -1.064495  -1.475179  2.344177
C    -1.656057  -0.626416  3.378182
C    -0.936209  -0.783575  4.740288
O    -0.144174  0.142302  5.122075
H    -1.621463  -2.251741  1.998267
H    -1.451421  0.417952  3.095033
C    -3.198431  -0.775433  3.428423
C    -3.885221  -0.188447  2.218868
C    -4.336708  -1.019460  1.174333
C    -4.113083  1.201164  2.127001
C    -4.986498  -0.495339  0.071582
C    -4.764837  1.749172  1.036481
C    -5.208145  0.900521  -0.005338
O    -5.854631  1.339621  -1.088196
H    -3.546329  -0.269312  4.340983
H    -3.475234  -1.832429  3.531805
H    -4.212012  -2.101484  1.243837
H    -3.802843  1.859655  2.940075
H    -5.355721  -1.129725  -0.732735
H    -4.955395  2.821957  0.986536
H    -5.998988  2.304664  -1.063471
N    -1.112921  -1.820639  5.545856
C    -1.962477  -3.006103  5.409615
H    -0.574591  -1.752028  6.411399
H    -1.977557  -3.364946  4.376272
H    -2.983692  -2.807383  5.757909
H    -1.531868  -3.796157  6.032542
Cd    1.160862  1.122060  3.657191
