34
Energy: -175947.406251 eV PBE+vdW (tier 2 basis)
C    -0.212023  -0.420200  -0.074621
C    -0.417476  0.530003  1.053280
O    -0.114872  1.754883  0.908965
H    -0.964069  -0.243022  -0.858098
H    -0.230518  -1.469180  0.235723
H    0.761889  -0.193368  -0.530839
N    -0.906086  0.109719  2.249142
C    -2.045371  -0.777914  2.429478
C    -3.318626  0.115492  2.426638
O    -3.283603  1.347009  2.104010
H    -0.775065  0.786701  3.002613
H    -2.109615  -1.426538  1.543496
C    -1.860515  -1.656958  3.701273
C    -2.836845  -2.795251  3.877301
C    -2.867087  -3.872656  2.961213
C    -3.680164  -2.849485  5.009816
C    -3.695467  -4.958623  3.161679
C    -4.514181  -3.932847  5.235056
C    -4.525771  -5.002221  4.310379
O    -5.284139  -6.090571  4.448851
H    -1.878197  -1.010874  4.590663
H    -0.843085  -2.070397  3.629749
H    -2.205165  -3.873963  2.093911
H    -3.656597  -2.039433  5.739680
H    -3.713105  -5.801187  2.472020
H    -5.143144  -3.969954  6.125392
H    -5.809620  -6.072883  5.271599
N    -4.467770  -0.454419  2.739882
C    -5.760419  0.238168  2.741200
H    -4.440207  -1.434793  3.027964
H    -5.753040  1.063646  3.462717
H    -6.533735  -0.481847  3.019913
H    -5.978554  0.636252  1.743403
Cd    -1.837761  2.980716  1.604548
