34
Energy: -175947.911761 eV PBE+vdW (tier 2 basis)
C    -2.363350  -1.248353  0.665930
C    -1.270031  -0.885068  1.618671
O    -0.076634  -1.185417  1.300364
H    -3.358717  -0.967992  1.026825
H    -2.330667  -2.327657  0.468890
H    -2.172361  -0.744051  -0.292032
N    -1.605348  -0.239917  2.749856
C    -0.696790  0.394681  3.710800
C    -0.265177  -0.627213  4.782303
O    0.742167  -1.391173  4.582370
H    -2.600364  -0.095754  2.915992
H    0.227120  0.647180  3.165468
C    -1.256299  1.762964  4.205317
C    -2.598084  1.776602  4.897942
C    -2.685388  1.896114  6.304925
C    -3.801493  1.757191  4.160369
C    -3.908198  1.952231  6.952480
C    -5.036428  1.809244  4.788909
C    -5.100468  1.897987  6.198033
O    -6.245606  1.963120  6.884031
H    -1.293540  2.406967  3.314841
H    -0.490560  2.194603  4.864797
H    -1.773711  2.005632  6.896246
H    -3.775389  1.771642  3.068417
H    -3.975797  2.072121  8.032834
H    -5.954045  1.815580  4.199140
H    -7.026308  1.959835  6.299150
N    -0.949686  -0.734896  5.901477
C    -0.643711  -1.694706  6.967628
H    -1.727677  -0.082913  6.040471
H    -0.623753  -2.713702  6.564910
H    -1.422232  -1.617127  7.730570
H    0.331944  -1.469964  7.415240
Cd    1.603580  -1.599783  2.605835
