34
Energy: -175947.497722 eV PBE+vdW (tier 2 basis)
C    -0.292597  -1.201597  0.768054
C    0.110428  0.110830  1.330133
O    1.105429  0.736927  0.964560
H    -1.370753  -1.241096  0.561234
H    -0.093387  -1.977703  1.528445
H    0.287675  -1.431989  -0.129793
N    -0.651827  0.693307  2.429955
C    -1.922120  1.394985  2.096332
C    -1.681071  2.821074  1.559984
O    -0.664322  3.513051  1.875005
H    -0.913510  -0.030407  3.127764
H    -2.477771  0.823307  1.336341
C    -2.777322  1.457263  3.402851
C    -2.965891  0.106489  4.041286
C    -2.206427  -0.269934  5.170795
C    -3.927042  -0.799909  3.545810
C    -2.386263  -1.501410  5.780905
C    -4.124590  -2.032564  4.144672
C    -3.352970  -2.394466  5.272697
O    -3.489725  -3.558834  5.917297
H    -3.747254  1.901962  3.141164
H    -2.287673  2.148137  4.105214
H    -1.499129  0.436391  5.609836
H    -4.552120  -0.523185  2.695063
H    -1.821146  -1.787156  6.666722
H    -4.884626  -2.714743  3.761303
H    -4.203337  -4.104878  5.538285
N    -2.638479  3.335889  0.805865
C    -2.647110  4.709661  0.290718
H    -3.452933  2.759023  0.608019
H    -3.164470  5.376293  0.992612
H    -3.169895  4.717732  -0.670328
H    -1.618080  5.053920  0.157857
Cd    1.064896  2.406204  2.602595
