34
Energy: -175947.732518 eV PBE+vdW (tier 2 basis)
C    0.098485  1.790104  1.788681
C    -0.265173  0.984714  2.991617
O    0.169074  1.330237  4.127680
H    -0.379627  1.431194  0.870945
H    1.189846  1.768218  1.663024
H    -0.179881  2.838117  1.960918
N    -1.062377  -0.111055  2.808584
C    -1.458352  -0.863490  3.979958
C    -0.427298  -1.928882  4.402739
O    0.349147  -1.644042  5.372978
H    -1.358477  -0.349912  1.866412
H    -1.251983  -0.089944  4.710210
C    -2.969305  -1.128453  4.330813
C    -3.150337  -0.263610  5.575529
C    -3.621384  1.063709  5.462698
C    -2.458751  -0.607652  6.739244
C    -3.338878  2.041087  6.410493
C    -2.025889  0.391979  7.661955
C    -2.510211  1.738042  7.505987
O    -2.169429  2.598434  8.462397
H    -3.152567  -2.192143  4.526353
H    -3.630462  -0.818711  3.512468
H    -4.210428  1.345649  4.588361
H    -2.157313  -1.641187  6.922048
H    -3.752025  3.044695  6.300274
H    -1.621463  0.111495  8.638439
H    -2.572278  3.477930  8.332180
N    -0.332405  -3.096789  3.790378
C    -1.106672  -3.586136  2.651299
H    0.402658  -3.710572  4.146986
H    -0.458123  -3.687813  1.772077
H    -1.926258  -2.900761  2.416960
H    -1.533360  -4.566952  2.891799
Cd    0.020496  0.398501  6.240515
