34
Energy: -175948.86404 eV PBE+vdW (tier 2 basis)
C    1.445665  -0.370175  0.955532
C    0.928612  0.030807  2.305492
O    1.763835  0.486121  3.135654
H    0.692399  -0.835944  0.311615
H    2.290177  -1.058285  1.086355
H    1.840138  0.524964  0.454446
N    -0.398998  -0.122791  2.507254
C    -1.320735  0.162477  3.633344
C    -1.275233  1.632145  4.102703
O    -0.289248  2.175945  4.684600
H    -0.878287  -0.498935  1.694190
H    -2.309167  0.035838  3.173459
C    -1.311413  -0.901540  4.786604
C    0.002432  -1.139633  5.484794
C    0.400497  -0.352512  6.577887
C    0.911588  -2.114749  5.022990
C    1.747415  -0.386499  7.057854
C    2.193368  -2.251385  5.545065
C    2.645899  -1.374586  6.548571
O    3.854701  -1.410879  7.106760
H    -1.664647  -1.840125  4.338532
H    -2.083900  -0.593900  5.506504
H    -0.310383  0.314005  7.071910
H    0.602174  -2.791602  4.225541
H    2.032667  0.160053  7.958898
H    2.849362  -3.041352  5.176992
H    4.407681  -2.131390  6.750782
N    -2.376492  2.343670  3.894080
C    -2.524139  3.744455  4.302820
H    -3.161049  1.906189  3.420488
H    -1.765565  4.364219  3.810438
H    -2.410845  3.837321  5.389319
H    -3.520398  4.084627  4.010008
Cd    1.592891  1.179449  5.164519
