34
Energy: -175947.311056 eV PBE+vdW (tier 2 basis)
C    0.074773  -0.288755  0.233908
C    0.075412  0.318509  1.614705
O    0.952077  1.053015  2.026950
H    -0.883200  -0.153486  -0.287074
H    0.292057  -1.366163  0.286807
H    0.869052  0.186072  -0.348304
N    -1.010951  0.036429  2.467258
C    -2.017749  -0.987935  2.280940
C    -3.270124  -0.420941  1.561443
O    -4.160598  -1.154646  0.988127
H    -0.842160  0.367174  3.417021
H    -1.633026  -1.766283  1.601298
C    -2.319657  -1.651923  3.668198
C    -3.055345  -2.960871  3.569454
C    -2.398929  -4.121706  3.089099
C    -4.417873  -3.059376  3.855868
C    -3.065115  -5.311715  2.828094
C    -5.166883  -4.234421  3.491660
C    -4.461305  -5.396149  3.020718
O    -5.191607  -6.488048  2.842403
H    -2.866919  -0.944644  4.306935
H    -1.339453  -1.818721  4.136719
H    -1.321235  -4.088206  2.919242
H    -4.949698  -2.234327  4.336213
H    -2.507630  -6.188965  2.496137
H    -6.200697  -4.361011  3.821789
H    -4.661718  -7.257381  2.556140
N    -3.349888  0.887670  1.471969
C    -4.397401  1.659772  0.808416
H    -2.536699  1.381147  1.853558
H    -4.036680  2.016752  -0.165175
H    -4.647062  2.524952  1.432034
H    -5.281944  1.036629  0.659458
Cd    -5.144194  -2.939278  1.503836
