31
Energy: -609766.355160 eV PBE+vdW (tier 2 basis)
C    1.61642  -0.36100  1.11621
C    0.89243  -0.59060  2.39760
O    1.55493  -0.83272  3.46043
H    2.29542  -1.20634  0.93178
H    2.25642  0.52845  1.22014
H    0.95726  -0.22537  0.25222
N    -0.45255  -0.54814  2.38939
C    -1.41126  -0.76569  3.49256
C    -1.19984  0.24243  4.64348
O    -0.31370  0.02954  5.55020
H    -0.86758  -0.32602  1.48690
H    -2.38930  -0.54512  3.05082
C    -1.45074  -2.23458  4.01913
C    -2.12887  -3.22251  3.11437
N    -3.46723  -3.59163  3.24619
C    -1.64100  -3.99328  2.08757
C    -3.78036  -4.53943  2.35373
N    -2.67805  -4.78497  1.64167
H    -1.95884  -2.23505  4.99471
H    -0.43074  -2.58937  4.21090
H    -4.12423  -3.25206  3.94668
H    -0.64771  -4.06660  1.66223
H    -4.74595  -5.02303  2.23844
H    -2.61986  -5.47758  0.89397
N    -1.96152  1.31373  4.74358
C    -3.04973  1.81784  3.89469
H    -1.76373  1.88198  5.57331
H    -2.93921  2.90527  3.81047
H    -4.01917  1.60091  4.36209
H    -3.00934  1.39149  2.88926
Pb    1.87865  -0.45456  5.64930
