31
Energy: -609766.239107 eV PBE+vdW (tier 2 basis)
C    -1.03145  2.43096  1.80824
C    -0.58781  1.08074  2.25442
O    0.65500  0.79302  2.25567
H    -0.60852  3.18850  2.48588
H    -2.11936  2.55283  1.77579
H    -0.60764  2.63944  0.81505
N    -1.52434  0.19016  2.63113
C    -1.36642  -1.20261  3.10131
C    -0.50991  -1.28110  4.38408
O    0.77429  -1.27705  4.32543
H    -2.47959  0.54207  2.61650
H    -2.37970  -1.51375  3.37755
C    -0.85689  -2.20295  2.01313
C    -1.91063  -2.75426  1.09530
N    -2.21540  -2.24998  -0.16794
C    -2.70660  -3.86470  1.24309
C    -3.14324  -3.01233  -0.76331
N    -3.45119  -3.99045  0.09113
H    -0.40207  -3.05917  2.53072
H    -0.05162  -1.74452  1.42428
H    -1.77445  -1.45708  -0.62810
H    -2.78302  -4.58158  2.05240
H    -3.55866  -2.86636  -1.75584
H    -4.12601  -4.73210  -0.10180
N    -1.08755  -1.40870  5.56190
C    -2.50673  -1.46887  5.94190
H    -0.42492  -1.50577  6.33742
H    -2.61266  -0.99209  6.92274
H    -2.83233  -2.51406  6.02594
H    -3.13733  -0.92713  5.23161
Pb    2.40672  -0.07012  3.36838
