31
Energy: -609765.922703 eV PBE+vdW (tier 2 basis)
C    -2.05704  3.65758  0.75645
C    -1.12893  2.71422  1.42521
O    -0.16732  3.16030  2.13801
H    -1.44078  4.34650  0.15344
H    -2.56623  4.29665  1.49298
H    -2.79013  3.17633  0.10287
N    -1.24576  1.36677  1.27730
C    -2.50717  0.65641  1.50642
C    -2.82671  0.79603  3.03758
O    -1.93064  1.23696  3.83870
H    -0.42951  0.86121  1.62849
H    -3.30804  1.16152  0.94608
C    -2.41552  -0.82387  1.07283
C    -2.32113  -1.07943  -0.40678
N    -2.48102  -2.36464  -0.91961
C    -2.08085  -0.28045  -1.49567
C    -2.34936  -2.35547  -2.25154
N    -2.10758  -1.09425  -2.61135
H    -3.30564  -1.34550  1.45621
H    -1.56050  -1.29927  1.58421
H    -2.67190  -3.21085  -0.38443
H    -1.88487  0.78006  -1.57770
H    -2.42834  -3.21383  -2.91210
H    -1.96513  -0.78943  -3.57460
N    -4.02540  0.46099  3.46454
C    -4.49885  0.51937  4.85709
H    -4.71254  0.16128  2.77326
H    -5.18885  -0.31467  5.02198
H    -5.03274  1.46320  5.03030
H    -3.64980  0.43630  5.53940
Pb    -0.11871  2.57497  4.33845
