31
Energy: -609765.741490 eV PBE+vdW (tier 2 basis)
C    -2.11300  3.61881  0.62377
C    -1.11966  2.69910  1.22878
O    -0.12156  3.16994  1.87284
H    -2.88326  3.11838  0.03010
H    -1.55669  4.31372  -0.02877
H    -2.57829  4.25469  1.39144
N    -1.21545  1.34907  1.09371
C    -2.44212  0.61130  1.40740
C    -2.67059  0.75974  2.95378
O    -1.73593  1.22567  3.69445
H    -0.36568  0.86356  1.38929
H    -3.28889  1.09072  0.89382
C    -2.34060  -0.87098  0.98396
C    -2.31224  -1.13896  -0.49596
N    -2.35402  -2.44261  -0.98531
C    -2.25662  -0.33523  -1.60598
C    -2.32999  -2.43971  -2.32368
N    -2.27166  -1.16466  -2.71041
H    -3.20041  -1.40682  1.41521
H    -1.45182  -1.32309  1.45737
H    -2.40125  -3.29652  -0.43073
H    -2.20086  0.73983  -1.71149
H    -2.35557  -3.31230  -2.96969
H    -2.24251  -0.86067  -3.68394
N    -3.83468  0.40653  3.45548
C    -4.22506  0.47164  4.87309
H    -4.55584  0.08512  2.80998
H    -4.86901  -0.38606  5.09418
H    -4.78604  1.39640  5.06249
H    -3.33360  0.43598  5.50317
Pb    0.07790  2.60240  4.06864
