31
Energy: -609765.577405 eV PBE+vdW (tier 2 basis)
C    0.32209  -0.65660  0.18357
C    0.19799  0.03470  1.48722
O    1.24749  0.38101  2.13210
H    0.90778  -1.57526  0.36721
H    0.92039  -0.06633  -0.52474
H    -0.63472  -0.94524  -0.26015
N    -1.00837  0.28009  2.06228
C    -2.11549  0.94401  1.37422
C    -1.67585  2.43074  1.17856
O    -0.64465  2.88382  1.78432
H    -0.92994  0.53825  3.04837
H    -2.24190  0.48644  0.38284
C    -3.41488  0.75573  2.22792
C    -4.74771  0.93856  1.56683
N    -5.40961  -0.07450  0.87095
C    -5.64157  1.98108  1.62338
C    -6.64019  0.32403  0.52631
N    -6.78742  1.57396  0.97302
H    -3.37858  1.42540  3.09898
H    -3.36759  -0.26785  2.62994
H    -5.06266  -1.01617  0.69469
H    -5.57300  2.94812  2.10793
H    -7.38147  -0.26241  -0.00906
H    -7.64108  2.12456  0.86935
N    -2.38340  3.20464  0.37970
C    -2.08317  4.61611  0.08433
H    -3.17258  2.78718  -0.10941
H    -2.97194  5.07267  -0.35975
H    -1.25303  4.68467  -0.63065
H    -1.82100  5.14283  1.00706
Pb    1.47405  2.56775  2.69366
