31
Energy: -609765.266533 eV PBE+vdW (tier 2 basis)
C    0.08277  0.45354  0.03483
C    0.11176  0.48271  1.51621
O    1.25915  0.67637  2.13086
H    -0.91380  0.26687  -0.37739
H    0.74789  -0.35052  -0.31692
H    0.48129  1.40145  -0.35653
N    -0.94225  0.31324  2.29879
C    -2.38715  0.11977  1.97805
C    -2.62596  -1.10637  1.03375
O    -2.79242  -0.90662  -0.17591
H    -0.72987  0.34692  3.29796
H    -2.84452  -0.08776  2.95472
C    -3.01367  1.41786  1.39944
C    -4.49235  1.36771  1.16317
N    -5.08124  0.69002  0.10185
C    -5.51820  2.02042  1.80223
C    -6.39820  0.90960  0.08692
N    -6.67466  1.71814  1.11701
H    -2.51660  1.66867  0.45211
H    -2.81486  2.23997  2.09913
H    -4.55775  0.08173  -0.53567
H    -5.51581  2.68257  2.65969
H    -7.11198  0.50956  -0.62552
H    -7.60637  2.06410  1.34458
N    -2.64003  -2.30763  1.62517
C    -2.88045  -3.56247  0.90405
H    -2.57970  -2.35973  2.63856
H    -2.69396  -3.40233  -0.16111
H    -3.91752  -3.89310  1.04613
H    -2.20682  -4.33476  1.29071
Pb    3.36176  1.01064  2.42202
