31
Energy: -609764.907788 eV PBE+vdW (tier 2 basis)
C    -0.60044  1.39084  0.42250
C    -0.29728  0.91591  1.79683
O    0.59921  1.57968  2.50612
H    -0.98989  2.41883  0.46623
H    -1.33121  0.76246  -0.09347
H    0.32536  1.41915  -0.17019
N    -0.85607  -0.11773  2.36771
C    -1.94027  -1.01754  1.93709
C    -2.54502  -1.42148  3.32538
O    -1.74505  -1.46388  4.26886
H    -0.62924  -0.38825  3.35874
H    -2.65097  -0.48615  1.29441
C    -1.31214  -2.26332  1.22094
C    -2.20015  -3.44654  0.98281
N    -2.81810  -3.73658  -0.23191
C    -2.50973  -4.49988  1.80834
C    -3.46668  -4.90621  -0.15858
N    -3.28975  -5.37218  1.08102
H    -0.47578  -2.60532  1.84656
H    -0.87317  -1.93531  0.26776
H    -2.75826  -3.18689  -1.08657
H    -2.22233  -4.70128  2.83354
H    -4.02046  -5.38831  -0.95787
H    -3.65948  -6.26103  1.41883
N    -3.84686  -1.71477  3.41787
C    -4.89275  -1.54310  2.40754
H    -4.14794  -1.93731  4.36712
H    -5.13957  -0.48438  2.25060
H    -5.79565  -2.04953  2.76144
H    -4.60880  -2.00119  1.45260
Pb    1.98128  2.90809  3.41898
