31
Energy: -609766.138067 eV PBE+vdW (tier 2 basis)
C    -0.26583  1.29373  0.30577
C    -0.25566  0.88895  1.73670
O    0.73208  1.20028  2.48057
H    -1.16456  0.97829  -0.23466
H    0.62259  0.88331  -0.19610
H    -0.17290  2.38906  0.24872
N    -1.30698  0.21084  2.23539
C    -1.46899  -0.18623  3.64008
C    -0.46503  -1.32130  3.99612
O    0.63379  -0.97009  4.56408
H    -2.04133  -0.03884  1.57619
H    -1.12585  0.65878  4.25363
C    -2.95605  -0.47640  3.99697
C    -3.84776  0.71723  4.19059
N    -4.07310  1.32204  5.42650
C    -4.68288  1.36500  3.31335
C    -4.99779  2.28412  5.31324
N    -5.36797  2.32149  4.03107
H    -2.97054  -1.07975  4.91665
H    -3.41522  -1.11181  3.22856
H    -3.66275  1.05082  6.31828
H    -4.87390  1.20378  2.25907
H    -5.38198  2.90709  6.11550
H    -6.07700  2.95269  3.65516
N    -0.66531  -2.60057  3.75116
C    -1.77576  -3.30385  3.09285
H    0.09819  -3.19984  4.07806
H    -1.37979  -4.24073  2.68770
H    -2.17586  -2.71970  2.25872
H    -2.56745  -3.54829  3.81237
Pb    2.18261  0.61088  4.10271
