31
Energy: -609766.685824 eV PBE+vdW (tier 2 basis)
C    -1.70088  -2.88918  1.48200
C    -1.39816  -1.58699  2.13508
O    -0.44279  -0.86121  1.69861
H    -2.57935  -3.39604  1.89519
H    -0.82738  -3.55240  1.57104
H    -1.84764  -2.71996  0.40477
N    -2.16064  -1.18339  3.16679
C    -2.05174  0.09792  3.88699
C    -0.82869  0.05503  4.84732
O    0.33527  0.27110  4.36235
H    -2.87780  -1.83662  3.47855
H    -1.79505  0.87186  3.14782
C    -3.38290  0.47531  4.56863
C    -4.52094  0.84828  3.65589
N    -5.76344  1.20058  4.17804
C    -4.64829  0.97656  2.29618
C    -6.60725  1.53089  3.19306
N    -5.94014  1.39757  2.04598
H    -3.18234  1.33635  5.22672
H    -3.72010  -0.34660  5.22525
H    -6.02208  1.22506  5.16389
H    -3.94555  0.81431  1.48960
H    -7.63987  1.84722  3.30913
H    -6.33843  1.58545  1.12546
N    -0.98006  -0.20470  6.12839
C    0.10576  -0.28765  7.11928
H    -1.91894  -0.37606  6.48212
H    -0.26223  0.11394  8.06902
H    0.96298  0.29547  6.77495
H    0.39877  -1.33640  7.26184
Pb    1.41891  0.20529  2.38111
