31
Energy: -609766.476991 eV PBE+vdW (tier 2 basis)
C    -0.04597  1.67472  0.95083
C    -0.21169  1.16822  2.33941
O    0.65326  1.45311  3.23143
H    -0.86975  1.40350  0.28206
H    0.89781  1.29017  0.53587
H    0.05634  2.76980  0.98048
N    -1.29321  0.42362  2.64176
C    -1.60025  -0.10777  3.97810
C    -0.57535  -1.21514  4.36437
O    0.40287  -0.86511  5.12030
H    -1.92810  0.20430  1.87609
H    -1.39196  0.69224  4.70305
C    -3.08231  -0.51649  4.13091
C    -4.06420  0.60991  4.31413
N    -5.33883  0.36652  4.82004
C    -4.03265  1.95438  4.04155
C    -6.05104  1.49898  4.85824
N    -5.26619  2.46997  4.38921
H    -3.14793  -1.17517  5.01093
H    -3.40400  -1.13140  3.27625
H    -5.70689  -0.53326  5.12699
H    -3.25627  2.58546  3.62957
H    -7.07351  1.60502  5.20897
H    -5.55062  3.44615  4.30311
N    -0.64310  -2.46828  3.96246
C    -1.59390  -3.15808  3.07988
H    0.10851  -3.05469  4.33678
H    -2.44534  -3.54921  3.65123
H    -1.06922  -4.00481  2.62515
H    -1.93600  -2.50214  2.27386
Pb    1.88750  0.83346  5.02200
