31
Energy: -609765.653982 eV PBE+vdW (tier 2 basis)
C    -2.46865  3.02392  1.57156
C    -1.35190  2.06234  1.73576
O    -0.32236  2.38612  2.41779
H    -3.26749  2.67241  0.91239
H    -2.04115  3.94911  1.14791
H    -2.88125  3.31772  2.54788
N    -1.37036  0.83493  1.14720
C    -2.49703  -0.09278  1.29404
C    -2.56123  -0.47717  2.80811
O    -1.54987  -0.22947  3.56140
H    -0.46120  0.36942  1.18761
H    -3.42809  0.42885  1.02947
C    -2.31717  -1.34129  0.40178
C    -2.43927  -1.11799  -1.08093
N    -2.47748  -2.19473  -1.96394
C    -2.52776  0.00167  -1.86852
C    -2.58670  -1.76037  -3.22546
N    -2.61939  -0.42786  -3.17804
H    -3.06699  -2.08751  0.70357
H    -1.34066  -1.80483  0.62498
H    -2.43097  -3.18252  -1.71693
H    -2.52432  1.05453  -1.62049
H    -2.64101  -2.37853  -4.11675
H    -2.70042  0.17408  -3.99797
N    -3.63490  -1.03754  3.32456
C    -4.91329  -1.39162  2.69495
H    -3.55876  -1.26088  4.32117
H    -5.72487  -1.08021  3.36288
H    -4.97475  -2.47937  2.55745
H    -5.03922  -0.88484  1.73412
Pb    0.18951  1.11741  4.24445
