31
Energy: -609766.137780 eV PBE+vdW (tier 2 basis)
C    2.75583  -0.35220  2.13579
C    1.55191  -0.71791  2.92955
O    1.68467  -1.06616  4.15161
H    3.30761  0.44522  2.65401
H    2.53189  -0.03456  1.11196
H    3.42990  -1.22274  2.10274
N    0.35098  -0.68900  2.32704
C    -0.97780  -1.10558  2.82857
C    -1.38260  -0.27382  4.06658
O    -1.01594  -0.61939  5.24728
H    0.37031  -0.39342  1.35249
H    -1.66529  -0.83258  2.01949
C    -1.08258  -2.64565  3.04418
C    -2.47130  -3.21476  2.97803
N    -2.97327  -3.86199  1.84979
C    -3.46627  -3.30776  3.92067
C    -4.20328  -4.33288  2.08927
N    -4.51340  -3.99461  3.34332
H    -0.63157  -2.92892  4.00268
H    -0.46497  -3.12234  2.27043
H    -2.47986  -4.01890  0.97201
H    -3.50684  -2.96909  4.94862
H    -4.82624  -4.89171  1.39697
H    -5.39266  -4.23630  3.80226
N    -2.13451  0.79793  3.90780
C    -2.67490  1.38495  2.66874
H    -2.35546  1.29385  4.77518
H    -3.24980  2.27349  2.94511
H    -3.35186  0.68646  2.16198
H    -1.86650  1.69685  1.99653
Pb    0.98578  -0.99047  6.26032
