31
Energy: -609766.040388 eV PBE+vdW (tier 2 basis)
C    -1.50646  0.54205  -0.49156
C    -1.07415  0.62600  0.92949
O    0.10405  1.02898  1.21194
H    -0.80875  -0.09071  -1.05783
H    -1.43374  1.54916  -0.93247
H    -2.52730  0.16760  -0.62100
N    -1.95014  0.29863  1.89619
C    -1.81183  0.54777  3.34020
C    -0.99534  -0.58339  4.02415
O    0.13855  -0.85722  3.48634
H    -2.86717  -0.00433  1.57380
H    -1.12139  1.40396  3.43615
C    -3.14833  1.07482  3.91847
C    -4.42887  0.33002  3.65081
N    -5.65458  0.97990  3.78507
C    -4.74444  -0.96356  3.30692
C    -6.66404  0.13522  3.54515
N    -6.12314  -1.04766  3.24914
H    -3.26544  2.08899  3.50550
H    -3.02754  1.22446  5.00205
H    -5.79174  1.95776  4.04225
H    -4.12151  -1.82921  3.11516
H    -7.72409  0.37118  3.58230
H    -6.66123  -1.88447  3.02013
N    -1.30602  -1.23502  5.13020
C    -2.42863  -1.17484  6.07723
H    -0.55481  -1.87186  5.41263
H    -3.38638  -1.06109  5.56701
H    -2.27576  -0.36273  6.80025
H    -2.44396  -2.12193  6.62563
Pb    1.82716  0.10352  2.30472
