31
Energy: -609765.535776 eV PBE+vdW (tier 2 basis)
C    -2.04732  4.36743  1.04908
C    -1.23465  3.15996  1.31997
O    -0.08536  3.26706  1.87289
H    -2.99277  4.16352  0.53773
H    -1.43833  5.01852  0.39595
H    -2.21392  4.95177  1.96519
N    -1.65065  1.91723  0.95131
C    -2.95348  1.38600  1.34463
C    -2.79001  0.86489  2.81166
O    -1.67181  0.99929  3.42239
H    -0.90198  1.22415  1.00092
H    -3.64738  2.23747  1.42046
C    -3.58441  0.43854  0.27876
C    -2.76762  -0.67085  -0.31959
N    -2.94021  -2.02244  -0.02318
C    -1.87003  -0.64241  -1.36114
C    -2.19734  -2.77960  -0.84091
N    -1.53590  -1.94812  -1.64965
H    -3.89469  1.09152  -0.54899
H    -4.52431  0.02545  0.67234
H    -3.58844  -2.41536  0.65644
H    -1.48817  0.18736  -1.94447
H    -2.15108  -3.86451  -0.85103
H    -0.90862  -2.25047  -2.39632
N    -3.83468  0.34409  3.42318
C    -3.87380  -0.09474  4.82863
H    -4.72152  0.32153  2.92160
H    -2.91335  -0.53720  5.10613
H    -4.66936  -0.83805  4.93639
H    -4.09464  0.75952  5.48261
Pb    0.30984  2.14046  3.80303
