21
Energy: -240071.564016 eV PBE+vdW (tier 2 basis)
N    -0.410617  0.875137  0.794543
C    -0.104598  0.101186  1.957054
C    1.380340  -0.261273  2.192922
O    1.895838  -0.405015  3.325640
H    -0.212985  0.415548  -0.092592
H    -0.009882  1.810404  0.794142
H    -0.386850  0.686951  2.846371
C    -0.980479  -1.198631  1.956659
C    -0.730717  -2.046517  3.155806
N    -0.172182  -3.305217  3.115158
C    -0.772484  -1.732714  4.502173
C    0.134166  -3.697854  4.382292
N    -0.200717  -2.750029  5.257415
H    -0.793548  -1.763559  1.032411
H    -2.023475  -0.856609  1.912487
H    -1.247014  -0.869055  4.965722
H    0.563776  -4.665911  4.621910
H    -0.059063  -3.875857  2.279266
O    2.080313  -0.398800  1.089832
H    3.022721  -0.590422  1.282592
Ba    1.820830  -1.078498  5.759510
