21
Energy: -240072.124337 eV PBE+vdW (tier 2 basis)
N    0.676191  0.207084  -0.844053
C    -0.068565  -0.066345  0.416516
C    0.879365  -0.716551  1.475848
O    2.144141  -0.538149  1.251400
H    0.640154  -0.628259  -1.439015
H    0.185245  0.928171  -1.380657
H    -0.339482  0.914182  0.840762
C    -1.380085  -0.865922  0.144502
C    -2.415063  -0.923832  1.220192
N    -2.173302  -1.139714  2.484797
C    -3.898908  -0.814484  1.097719
C    -3.418669  -1.180865  3.196388
N    -4.425272  -0.998537  2.431627
H    -1.122867  -1.912203  -0.102964
H    -1.862333  -0.451248  -0.751830
H    -4.319978  -1.564948  0.402535
H    -3.433425  -1.354000  4.270519
H    -1.165795  -1.270406  2.796742
O    0.423457  -1.296804  2.459176
H    -4.214765  0.160919  0.683022
Ba    3.507956  0.525911  -0.269224
