21
Energy: -240071.713813 eV PBE+vdW (tier 2 basis)
N    0.134243  0.058811  0.373018
C    -0.288292  0.121411  1.800999
C    0.917311  0.446051  2.666813
O    2.078507  0.282565  2.241068
H    -0.505483  -0.638088  -0.057096
H    -0.142240  0.938228  -0.077488
H    -1.054633  0.901744  1.938354
C    -0.893421  -1.239074  2.278552
C    -1.920227  -1.746992  1.319340
N    -2.199832  -3.093151  1.158918
C    -2.787925  -1.106444  0.443622
C    -3.207851  -3.194534  0.238121
N    -3.568060  -2.012698  -0.221226
H    -1.314450  -1.081919  3.285074
H    -0.083017  -1.977954  2.401231
H    -2.915423  -0.039197  0.275261
H    -3.634605  -4.149205  -0.054317
H    -1.816691  -3.861372  1.701657
O    0.769704  0.857776  3.899846
H    -0.162507  0.990435  4.167066
Ba    2.882073  -0.243318  -0.005828
