21
Energy: -240072.474760 eV PBE+vdW (tier 2 basis)
N    -0.306024  0.416907  0.903974
C    0.655813  0.052645  1.944898
C    1.981540  -0.561626  1.443594
O    2.232207  -0.569308  0.192730
H    0.041782  1.194557  0.341122
H    -0.461572  -0.356966  0.253278
H    0.957425  0.983289  2.455884
C    0.007384  -0.865457  3.014177
C    -1.230802  -0.308736  3.621604
N    -2.047973  0.497325  2.993355
C    -1.827536  -0.524598  4.971538
C    -3.146537  0.821707  3.860901
N    -3.050734  0.250208  4.997651
H    0.732963  -1.101830  3.802648
H    -0.267962  -1.836555  2.561675
H    -2.033202  -1.591290  5.176921
H    -3.939820  1.485357  3.523110
H    -1.805557  0.779033  2.009816
O    2.817044  -1.015119  2.299595
H    -1.146366  -0.207592  5.782760
Ba    4.541925  -1.475950  0.547768
