21
Energy: -240072.053429 eV PBE+vdW (tier 2 basis)
N    0.707258  0.329279  0.076748
C    0.467135  0.147713  1.462238
C    1.671418  -0.559989  2.096147
O    2.337444  -1.393118  1.395325
H    0.080893  0.970834  -0.401449
H    0.868361  -0.520618  -0.458850
H    0.359919  1.126885  1.945755
C    -0.892763  -0.704098  1.802882
C    -1.458296  -0.413951  3.121467
N    -2.464645  0.411593  3.354897
C    -1.015024  -0.863130  4.476113
C    -2.689752  0.508530  4.768440
N    -1.875329  -0.206647  5.439145
H    -0.649353  -1.770877  1.711577
H    -1.602179  -0.446109  1.007695
H    -1.081560  -1.960848  4.584382
H    -3.488283  1.139152  5.155451
H    -3.021045  0.887414  2.642368
O    2.013013  -0.280281  3.297649
H    0.046344  -0.609038  4.654932
Ba    4.293852  -1.323486  2.915435
