21
Energy: -240072.349935 eV PBE+vdW (tier 2 basis)
N    -0.515107  -1.327924  -0.061221
C    0.130764  -0.458891  0.935266
C    1.574782  -0.146501  0.516229
O    1.872203  -0.187667  -0.726794
H    -0.141102  -1.114235  -0.989125
H    -1.522229  -1.158491  -0.096297
H    -0.333961  0.546387  0.972010
C    0.022855  -1.023822  2.373904
C    0.323628  -2.469202  2.530782
N    0.193449  -3.343887  1.565272
C    0.751626  -3.242805  3.732531
C    0.518556  -4.648319  2.071500
N    0.845053  -4.624548  3.304911
H    -1.011420  -0.880678  2.736439
H    0.651256  -0.437374  3.056868
H    0.033929  -3.142930  4.568224
H    0.467895  -5.521051  1.423781
H    -0.125328  -2.977078  0.623579
O    2.422779  0.233817  1.392072
H    1.713061  -2.888485  4.144997
Ba    4.067312  0.963683  -0.362928
