21
Energy: -240072.278066 eV PBE+vdW (tier 2 basis)
N    -0.839219  0.091463  1.719081
C    0.461423  -0.577195  1.597809
C    1.642716  0.370805  1.301273
O    1.419418  1.608543  1.082948
H    -0.932363  0.539263  2.632014
H    -0.916556  0.844477  1.030173
H    0.700248  -1.043367  2.567301
C    0.428357  -1.700663  0.531235
C    -0.623050  -2.784284  0.865244
N    -1.977176  -2.242879  0.896258
C    -0.827647  -3.896906  -0.115301
C    -2.723938  -2.924056  0.070379
N    -2.053930  -3.966739  -0.550305
H    1.413350  -2.180437  0.474087
H    0.201142  -1.279572  -0.459471
H    -0.063629  -4.612854  -0.421168
H    -3.773309  -2.702909  -0.121301
H    -2.104568  -1.310831  1.355236
O    2.829120  -0.107605  1.296802
H    -0.393087  -3.229335  1.854271
Ba    3.873699  2.129079  0.968434
