21
Energy: -240072.398737 eV PBE+vdW (tier 2 basis)
N    1.025766  1.800139  2.906933
C    1.486196  0.739845  3.873963
C    2.168083  -0.364796  3.051362
O    2.517064  -0.097611  1.848689
H    1.088513  2.750268  3.291927
H    1.582668  1.731902  2.038138
H    2.270552  1.176729  4.510283
C    0.291645  0.283304  4.755559
C    -0.922946  -0.007909  3.942740
N    -1.276691  -1.261133  3.478148
C    -1.851395  0.851008  3.365300
C    -2.392130  -1.106849  2.691699
N    -2.745674  0.155428  2.589742
H    0.075306  1.086753  5.473641
H    0.623843  -0.578075  5.348401
H    -1.981281  1.917301  3.547744
H    -2.903515  -1.948935  2.234844
H    -0.896368  -2.143520  3.805535
O    2.423396  -1.479117  3.600277
H    0.012657  1.586405  2.684605
Ba    3.803310  -2.301141  1.653469
