21
Energy: -240072.955184 eV PBE+vdW (tier 2 basis)
N    0.530558  -1.225802  0.137959
C    0.145828  -0.375844  1.294296
C    1.417157  -0.061319  2.074586
O    2.396919  -0.820359  2.089949
H    -0.323218  -1.595010  -0.291715
H    0.932815  -0.618518  -0.584431
H    -0.313785  0.574328  0.983710
C    -0.885884  -1.103023  2.224454
C    -0.354499  -2.398479  2.737634
N    0.307198  -2.551662  3.939698
C    -0.150641  -3.601018  2.078785
C    0.903552  -3.781011  3.953511
N    0.667869  -4.436391  2.821047
H    -1.798806  -1.273819  1.636589
H    -1.169170  -0.420559  3.036632
H    -0.602147  -3.932483  1.145425
H    1.467394  -4.157806  4.802252
H    0.290971  -1.896557  4.719032
O    1.347803  1.061354  2.754010
H    2.177828  1.228269  3.252034
Ba    2.512803  -3.187093  1.026181
