21
Energy: -240072.454186 eV PBE+vdW (tier 2 basis)
N    0.145107  -2.434312  2.044950
C    1.377011  -2.354132  1.187295
C    2.202212  -1.134711  1.619132
O    1.910588  -0.544763  2.716084
H    -0.147187  -3.402477  2.244999
H    0.315083  -1.947496  2.939230
H    2.008885  -3.233122  1.380596
C    0.864384  -2.341196  -0.263112
C    -0.561818  -1.730674  -0.218268
N    -1.587403  -2.565170  -0.828176
C    -1.042385  -1.778863  1.268201
C    -2.423355  -3.028199  0.136346
N    -2.179972  -2.641424  1.356971
H    0.805243  -3.369663  -0.639006
H    1.553991  -1.791989  -0.912153
H    -1.201513  -0.804312  1.747237
H    -3.247546  -3.694438  -0.118856
H    -1.736817  -2.658991  -1.826050
O    3.188249  -0.784006  0.899612
H    -0.583063  -0.713145  -0.627215
Ba    4.006304  0.926084  2.533183
