21
Energy: -240072.544394 eV PBE+vdW (tier 2 basis)
N    -0.857979  0.680910  0.142133
C    -0.153460  0.244315  1.336253
C    1.229904  -0.285274  0.985462
O    1.477339  -0.908573  -0.058318
H    -1.703313  1.189839  0.409094
H    -0.300555  1.334108  -0.410529
H    -0.030301  1.026345  2.111101
C    -0.959413  -0.933263  2.020834
C    -1.040585  -2.127037  1.138243
N    -1.861309  -2.221161  0.038235
C    -0.213198  -3.233176  1.050180
C    -1.508902  -3.312391  -0.685819
N    -0.488482  -3.951590  -0.105106
H    -1.953605  -0.531298  2.262691
H    -0.490600  -1.207009  2.974835
H    0.516092  -3.577059  1.780796
H    -2.023951  -3.623076  -1.589973
H    -2.578226  -1.547210  -0.219535
O    2.201754  -0.167785  1.872055
H    1.949228  0.391420  2.634697
Ba    1.775839  -3.108967  -1.229382
