21
Energy: -240071.891575 eV PBE+vdW (tier 2 basis)
N    -0.346699  1.159068  1.724448
C    -0.113909  -0.263822  1.818110
C    1.391617  -0.531429  1.915799
O    1.874024  -1.677982  1.605746
H    -1.262629  1.437241  2.071083
H    0.371576  1.697668  2.205528
H    -0.525867  -0.730703  2.744534
C    -0.783872  -0.944800  0.589368
C    -1.399122  -2.346423  0.858113
N    -2.204530  -2.823615  -0.265482
C    -0.468597  -3.506523  0.974751
C    -1.750430  -3.988992  -0.660453
N    -0.680291  -4.436568  0.081178
H    -0.091690  -1.000775  -0.260576
H    -1.606455  -0.283447  0.287880
H    0.315959  -3.588426  1.723385
H    -2.178759  -4.551707  -1.489610
H    -2.995881  -2.326060  -0.673924
O    2.153835  0.405102  2.336943
H    -2.037716  -2.289600  1.762621
Ba    4.234434  -0.885208  2.125558
