21
Energy: -240072.019374 eV PBE+vdW (tier 2 basis)
N    1.221931  0.154227  0.878463
C    0.544890  -0.345567  2.029684
C    1.323459  -1.525455  2.629642
O    2.230936  -2.094075  1.945025
H    1.311152  -0.498800  0.103626
H    0.895385  1.061727  0.557292
H    0.546085  0.445066  2.796872
C    -0.980098  -0.761951  1.796225
C    -1.880372  -0.643497  2.960273
N    -1.561622  -0.948023  4.199480
C    -3.279072  -0.124675  3.026746
C    -2.679198  -0.664413  5.056327
N    -3.676498  -0.194545  4.416564
H    -1.025790  -1.795953  1.414046
H    -1.369499  -0.132733  0.984517
H    -3.971728  -0.702915  2.387076
H    -2.615730  -0.849948  6.126690
H    -0.630988  -1.329108  4.451264
O    1.066084  -1.924886  3.830135
H    -3.353966  0.912791  2.649899
Ba    3.208638  -3.384265  3.786155
