21
Energy: -240072.726135 eV PBE+vdW (tier 2 basis)
N    0.133496  1.025961  0.779078
C    -0.046053  0.688801  2.212476
C    1.165129  -0.142956  2.644970
O    1.812239  -0.801773  1.824201
H    -0.724190  1.464093  0.430703
H    0.841786  1.764213  0.705411
H    -0.104315  1.589664  2.846466
C    -1.373534  -0.121566  2.434949
C    -1.533989  -1.209771  1.425953
N    -2.307612  -1.088260  0.286578
C    -0.831145  -2.390344  1.241447
C    -2.035170  -2.145293  -0.536495
N    -1.115206  -2.939857  0.002026
H    -2.212864  0.586242  2.388053
H    -1.381712  -0.533494  3.453308
H    -0.172933  -2.893415  1.946088
H    -2.542180  -2.307015  -1.483844
H    -3.041234  -0.398553  0.133455
O    1.498728  -0.209084  3.915070
H    0.982017  0.387077  4.492986
Ba    1.223742  -1.396666  -0.579880
