21
Energy: -240072.588863 eV PBE+vdW (tier 2 basis)
N    -0.447968  -1.666639  1.908204
C    0.797865  -1.752079  1.064010
C    1.930440  -0.941518  1.680869
O    1.661847  -0.097010  2.603059
H    -0.505039  -2.411640  2.617703
H    -0.456033  -0.757621  2.398228
H    1.094444  -2.806267  0.991454
C    0.341602  -1.220330  -0.310346
C    -1.095092  -1.747432  -0.470408
N    -1.186447  -3.140678  -0.902082
C    -1.685131  -1.876667  0.967983
C    -1.845148  -3.853119  0.055479
N    -2.142283  -3.223424  1.154414
H    1.013325  -1.555562  -1.107282
H    0.331142  -0.120546  -0.313868
H    -2.423914  -1.123595  1.265714
H    -2.085091  -4.904324  -0.106374
H    -1.166700  -3.411017  -1.880322
O    3.108047  -1.112204  1.233487
H    -1.691277  -1.088333  -1.114468
Ba    4.140411  0.540009  2.795545
