21
Energy: -240071.662953 eV PBE+vdW (tier 2 basis)
N    -0.666125  0.736726  0.008654
C    -0.139378  0.290713  1.299934
C    1.347961  -0.067376  1.186396
O    1.792202  -1.138532  0.765294
H    -0.288509  0.203043  -0.774490
H    -0.450974  1.718711  -0.160674
H    -0.211632  1.134111  1.997219
C    -1.004469  -0.847353  1.900531
C    -1.276865  -2.012170  1.006988
N    -0.272937  -2.688130  0.342165
C    -2.436275  -2.669007  0.670882
C    -0.798451  -3.695915  -0.358525
N    -2.137117  -3.733741  -0.185338
H    -1.967708  -0.403911  2.180413
H    -0.536535  -1.207984  2.830913
H    -3.448571  -2.432931  0.988767
H    -0.214593  -4.372353  -0.973609
H    0.717157  -2.304697  0.396414
O    2.134048  0.949959  1.524082
H    3.069756  0.702775  1.365751
Ba    -3.989985  -5.200941  -0.920766
