21
Energy: -240071.593097 eV PBE+vdW (tier 2 basis)
N    0.627068  1.573861  1.017831
C    0.016652  0.255576  1.461889
C    0.877751  -0.776463  0.710818
O    1.467780  -0.453090  -0.303656
H    1.091580  1.335193  0.102321
H    1.349859  1.915867  1.663469
H    0.133826  0.154075  2.546684
C    -1.477282  0.240959  1.050259
C    -2.195028  -1.054463  1.270267
N    -2.020742  -2.107636  0.399023
C    -3.131441  -1.386594  2.232764
C    -2.838109  -3.040406  0.846694
N    -3.561651  -2.673846  1.971949
H    -1.538442  0.487243  -0.022489
H    -1.984280  1.040027  1.611160
H    -3.526226  -0.804721  3.059926
H    -2.916490  -4.025915  0.376143
H    -0.071574  2.315345  0.887054
O    0.897292  -1.960966  1.301564
H    1.418046  -2.579859  0.747301
Ba    -5.298591  -4.290188  2.335032
