21
Energy: -240071.724469 eV PBE+vdW (tier 2 basis)
N    0.783599  0.920097  1.463726
C    0.457664  -0.506058  1.746606
C    1.761945  -1.350869  1.836736
O    2.798807  -0.681756  2.277877
H    -0.018848  1.514204  1.690648
H    0.916445  1.036220  0.452964
H    0.025842  -0.531191  2.761618
C    -0.577771  -1.077480  0.752261
C    -1.049278  -2.543639  1.020046
N    -2.476258  -2.757108  0.741640
C    -0.492181  -3.625443  0.141095
C    -2.608077  -3.751366  -0.102809
N    -1.409540  -4.298710  -0.498387
H    -0.184528  -1.016071  -0.272526
H    -1.469552  -0.436184  0.783400
H    0.571824  -3.840408  0.061143
H    -3.573760  -4.116757  -0.453171
H    -3.247397  -2.247493  1.171432
O    1.738329  -2.534336  1.551251
H    -0.852409  -2.826337  2.071605
Ba    3.390143  1.489684  2.646846
