22
Energy: -33483.8369388 eV PBE+vdW (tier 2 basis)
N    0.603071  1.032130  1.996920
C    0.593065  -0.412198  1.591608
C    0.507638  -0.459728  0.059638
O    0.710814  0.565036  -0.629467
H    -0.344221  1.290687  2.302663
H    1.175985  1.134959  2.841703
H    0.269491  -1.639112  -1.429997
H    1.594411  -0.820261  1.814684
C    -0.485852  -1.303705  2.282920
C    -0.257289  -1.683211  3.716769
N    0.500686  -2.785522  4.114043
C    -0.808521  -1.186694  4.873004
C    0.415476  -2.954450  5.439488
N    -0.372369  -1.984175  5.909187
H    -0.588408  -2.223383  1.688751
H    -1.463865  -0.804036  2.210666
H    1.002272  -3.431421  3.506173
H    -1.501831  -0.370221  5.038496
H    0.890982  -3.739324  6.020841
H    -0.629596  -1.876956  6.891705
O    0.266011  -1.628935  -0.443286
Ca    1.206050  2.554518  0.057492
