22
Energy: -33483.3267527 eV PBE+vdW (tier 2 basis)
N    0.755164  -0.333655  0.021965
C    0.267161  -0.050374  1.408793
C    1.500740  0.268086  2.270456
O    2.588393  0.512749  1.708492
H    0.902597  -1.346565  -0.079382
H    0.000801  -0.116988  -0.640472
H    0.570989  0.228992  3.972331
H    -0.262499  0.919516  1.360291
C    -0.781958  -1.037397  1.991595
C    -0.404937  -2.469940  2.272014
N    -1.327346  -3.497673  2.079273
C    0.684209  -3.068703  2.860753
C    -0.836057  -4.658566  2.527517
N    0.388229  -4.409822  2.997208
H    -1.632823  -1.025126  1.293713
H    -1.200951  -0.589400  2.910352
H    -2.266565  -3.403180  1.691549
H    1.621038  -2.665455  3.226552
H    -1.339843  -5.621436  2.509965
H    0.998456  -5.115745  3.412816
O    1.453893  0.353969  3.565957
Ca    2.984376  0.826307  -0.388405
