22
Energy: -33484.2890222 eV PBE+vdW (tier 2 basis)
N    -0.023866  0.021330  -0.037494
C    0.458189  -0.312894  1.368779
C    1.924255  -0.786795  1.240178
O    2.514274  -0.635695  0.115826
H    -0.746021  0.758138  -0.039918
H    -0.413977  -0.800098  -0.526435
H    0.784377  0.341368  -0.604340
H    0.483855  0.645205  1.911939
C    -0.517623  -1.298795  2.064251
C    -0.680763  -1.136449  3.552186
N    -1.874973  -1.478265  4.182681
C    0.158592  -0.725144  4.556018
C    -1.775455  -1.285152  5.503107
N    -0.545863  -0.823489  5.738601
H    -0.227016  -2.335894  1.831658
H    -1.511768  -1.153574  1.612583
H    -2.718345  -1.837591  3.736211
H    1.187291  -0.391030  4.532595
H    -2.552433  -1.466195  6.240292
H    -0.192091  -0.581208  6.664727
O    2.525125  -1.273172  2.243670
Ca    4.423548  -1.462727  1.000443
