22
Energy: -33483.1445645 eV PBE+vdW (tier 2 basis)
N    -0.380794  1.607408  1.622491
C    0.055703  0.253977  1.389708
C    1.441813  0.530082  0.777910
O    2.470297  0.709805  1.503002
H    -0.671761  1.856282  2.561595
H    -0.911284  2.073129  0.892299
H    0.841438  0.525049  -1.059587
H    0.240781  -0.234791  2.355457
C    -0.868744  -0.640815  0.513500
C    -2.190964  -0.973008  1.141042
N    -2.460536  -2.177039  1.787897
C    -3.370428  -0.270016  1.173933
C    -3.737127  -2.213706  2.190479
N    -4.294935  -1.056533  1.826603
H    -0.344398  -1.573007  0.252021
H    -1.088927  -0.132191  -0.440596
H    -1.818763  -2.958710  1.905718
H    -3.634715  0.697975  0.766065
H    -4.227122  -3.033985  2.705833
H    -5.271462  -0.811020  1.993318
O    1.625805  0.714782  -0.503202
Ca    4.417124  1.321331  1.932513
