22
Energy: -33482.9770801 eV PBE+vdW (tier 2 basis)
N    -0.231146  -1.174449  -0.011590
C    -0.132236  -0.239109  1.086323
C    1.316029  0.230358  1.089419
O    1.718684  1.273275  0.462507
H    -0.400060  -0.800923  -0.940787
H    0.395448  -1.975193  -0.007231
H    3.103216  -0.312812  1.571980
H    -0.740272  0.639454  0.836249
C    -0.685663  -0.791717  2.440041
C    -0.537880  -2.254991  2.732739
N    0.184099  -2.766660  3.808128
C    -1.156336  -3.342634  2.161695
C    0.015580  -4.092361  3.897560
N    -0.790168  -4.450743  2.894724
H    -1.763362  -0.577161  2.411675
H    -0.290679  -0.196169  3.275393
H    0.719398  -2.227135  4.484869
H    -1.843895  -3.405620  1.327236
H    0.444736  -4.748334  4.648129
H    -1.105603  -5.405875  2.723790
O    2.160934  -0.558027  1.699410
Ca    2.256215  3.056836  -0.474821
