22
Energy: -33483.4460758 eV PBE+vdW (tier 2 basis)
N    0.940419  -0.470597  0.226406
C    0.168112  -0.293988  1.497939
C    1.169482  0.175466  2.580197
O    2.323379  0.505875  2.236879
H    1.128211  -1.472101  0.091593
H    0.340193  -0.217105  -0.565472
H    -0.045805  0.049064  4.094158
H    -0.502549  0.570889  1.353563
C    -0.674175  -1.536133  1.933049
C    -1.822601  -1.945070  1.054525
N    -3.078610  -1.335688  1.054793
C    -1.948685  -3.036607  0.229702
C    -3.925089  -2.019887  0.273908
N    -3.245622  -3.049966  -0.235347
H    -1.073299  -1.366770  2.946502
H    -0.005654  -2.404372  2.034896
H    -3.370306  -0.527372  1.601903
H    -1.244507  -3.820091  -0.026593
H    -4.970604  -1.783295  0.095930
H    -3.647895  -3.754438  -0.856528
O    0.864009  0.298603  3.833822
Ca    3.241067  0.693418  0.322470
