22
Energy: -33482.9326396 eV PBE+vdW (tier 2 basis)
N    -0.176009  0.563256  0.172322
C    -0.087499  0.293456  1.598427
C    1.427442  0.501932  1.763099
O    1.933061  1.666541  1.810823
H    -0.935244  1.183192  -0.101477
H    -0.142155  -0.258098  -0.429638
H    1.870746  -1.369421  1.726107
H    -0.576529  1.112429  2.144049
C    -0.695807  -1.065495  2.018218
C    -0.916884  -1.347351  3.478149
N    -1.365486  -2.596386  3.903266
C    -0.876948  -0.572651  4.609866
C    -1.591568  -2.588643  5.222326
N    -1.294547  -1.365061  5.662107
H    -0.135820  -1.900988  1.558058
H    -1.677027  -1.094181  1.514807
H    -1.535969  -3.409869  3.312684
H    -0.617069  0.466932  4.760411
H    -1.948971  -3.422492  5.819369
H    -1.379680  -1.068798  6.634537
O    2.284952  -0.481168  1.732896
Ca    3.262223  3.193045  1.324004
