22
Energy: -33483.1929087 eV PBE+vdW (tier 2 basis)
N    0.798698  -2.223896  1.112924
C    0.200142  -0.904111  1.178375
C    1.230435  0.000316  1.866643
O    2.147629  0.593962  1.211227
H    1.047252  -2.662659  1.998952
H    1.520326  -2.358535  0.408486
H    0.587419  -0.312411  3.662114
H    0.082729  -0.527444  0.153389
C    -1.178384  -0.926527  1.883127
C    -2.232608  -1.703889  1.142454
N    -3.529857  -1.223979  0.980670
C    -2.233541  -2.957449  0.579899
C    -4.287786  -2.131074  0.352452
N    -3.506510  -3.183868  0.101365
H    -1.529518  0.106628  2.024599
H    -1.080678  -1.367498  2.892764
H    -3.889083  -0.327549  1.304064
H    -1.447863  -3.696020  0.495204
H    -5.337892  -2.027739  0.097913
H    -3.820552  -4.033831  -0.367470
O    1.320743  0.112328  3.167835
Ca    3.827898  1.811243  0.942013
