32
Energy: -241839.73852 eV PBE+vdW (tier 2 basis)
C    0.454735  0.940657  0.608070
C    -0.063854  0.013652  1.657714
O    0.755127  -0.461414  2.545996
H    0.924877  1.814009  1.079738
H    -0.330284  1.282860  -0.073140
H    1.231502  0.425124  0.026153
N    -1.334754  -0.304051  1.660591
C    -2.073424  -1.281562  2.460000
C    -3.289491  -1.593881  1.514246
O    -3.507885  -0.808655  0.586829
H    -1.978822  0.014462  0.896002
H    -1.458736  -2.184244  2.595755
C    -2.588661  -0.718229  3.802334
C    -1.572173  -0.479038  4.938715
C    -2.250398  0.248158  6.108080
C    -0.936500  -1.792074  5.426928
H    -3.360697  -1.405512  4.182622
H    -3.112058  0.224966  3.588569
H    -0.792142  0.207467  4.541511
H    -1.549759  0.441766  6.931785
H    -3.075853  -0.352051  6.515038
H    -2.664741  1.212085  5.788505
H    -0.240308  -1.635074  6.274544
H    -0.449711  -2.382476  4.625451
H    -1.700601  -2.466206  5.840215
N    -4.019541  -2.679388  1.799347
C    -5.206024  -3.073286  1.037208
H    -3.731742  -3.278524  2.565701
H    -6.082226  -3.111223  1.695172
H    -5.051987  -4.057591  0.579392
H    -5.373007  -2.330957  0.252586
Ba    1.950655  -0.839420  4.469671
