32
Energy: -241840.288985 eV PBE+vdW (tier 2 basis)
C    0.001102  0.165455  -0.007162
C    0.113972  0.254634  1.480496
O    1.246896  0.382690  2.041924
H    -0.043966  1.172995  -0.450110
H    -0.883042  -0.392805  -0.332323
H    0.905246  -0.317591  -0.394521
N    -0.994603  0.219652  2.249682
C    -2.230065  0.919919  1.914962
C    -1.945129  2.444458  2.025155
O    -0.804480  2.870737  2.399648
H    -0.810984  0.130529  3.249866
H    -2.483326  0.702425  0.866563
C    -3.383139  0.452352  2.821453
C    -3.731789  -1.043769  2.687589
C    -4.829276  -1.395975  3.700062
C    -4.147016  -1.417106  1.260597
H    -4.280809  1.045203  2.584954
H    -3.133276  0.692949  3.869077
H    -2.832280  -1.628174  2.948778
H    -5.050802  -2.469511  3.668785
H    -5.763266  -0.859956  3.477930
H    -4.533376  -1.148552  4.728574
H    -4.433258  -2.474656  1.210787
H    -3.340575  -1.281040  0.523825
H    -5.016286  -0.829770  0.928881
N    -2.920451  3.278259  1.710171
C    -2.820887  4.739315  1.765692
H    -3.811179  2.879023  1.424996
H    -3.768047  5.162474  1.421902
H    -2.014046  5.092520  1.113038
H    -2.632370  5.071663  2.793467
Ba    1.580538  2.616753  3.018874
