32
Energy: -241840.716356 eV PBE+vdW (tier 2 basis)
C    -0.877302  1.009969  0.169956
C    -0.767452  0.510851  1.575586
O    0.353500  0.157602  2.042879
H    -1.891094  1.311171  -0.113070
H    -0.536946  0.217703  -0.511345
H    -0.197066  1.861194  0.034925
N    -1.895383  0.449568  2.307868
C    -2.070155  -0.099842  3.673076
C    -1.400165  0.842963  4.686043
O    -0.147881  0.813666  4.877154
H    -2.744481  0.745502  1.835006
H    -3.149737  -0.048493  3.850137
C    -1.675087  -1.596128  3.728366
C    -1.709620  -2.346236  5.083492
C    -0.384410  -2.285271  5.858650
C    -2.902730  -1.965826  5.969509
H    -0.694671  -1.746691  3.250869
H    -2.384176  -2.085134  3.044526
H    -1.845480  -3.401720  4.801416
H    -0.162643  -1.280779  6.249118
H    0.452307  -2.653385  5.232076
H    -0.406106  -2.956666  6.726598
H    -3.851595  -2.021387  5.418604
H    -2.802709  -0.956628  6.396887
H    -2.986370  -2.655861  6.817810
N    -2.150194  1.712340  5.353326
C    -3.600610  1.924450  5.285796
H    -1.627151  2.311760  5.991558
H    -3.907368  2.277872  4.293843
H    -3.859769  2.697403  6.014390
H    -4.149589  1.012363  5.550046
Ba    1.849131  -0.215329  3.929905
