32
Energy: -241839.987885 eV PBE+vdW (tier 2 basis)
C    0.104524  0.514780  0.041262
C    -0.001539  0.253812  1.507289
O    1.033559  0.070787  2.215959
H    0.561390  1.498433  -0.142860
H    -0.854647  0.452648  -0.480429
H    0.793273  -0.229313  -0.382283
N    -1.215684  0.228555  2.106263
C    -2.270188  1.230546  1.865832
C    -1.582934  2.606387  1.953387
O    -0.647785  2.769100  2.812713
H    -1.198916  -0.126017  3.063414
H    -2.721221  1.074856  0.878298
C    -3.338179  0.993784  2.970017
C    -4.712160  1.688176  2.896733
C    -4.687823  3.179716  3.250528
C    -5.465404  1.392745  1.594560
H    -2.869049  1.224583  3.942239
H    -3.511164  -0.093820  2.946936
H    -5.276466  1.191449  3.703708
H    -5.710926  3.553598  3.379345
H    -4.226570  3.800442  2.471409
H    -4.154102  3.366904  4.192937
H    -6.500928  1.747130  1.666052
H    -5.504978  0.316018  1.380167
H    -5.023592  1.895329  0.722469
N    -1.898312  3.601229  1.138326
C    -2.854774  3.653123  0.031373
H    -1.411001  4.474268  1.343656
H    -2.430336  4.282169  -0.758153
H    -3.807308  4.087837  0.359510
H    -3.038206  2.655978  -0.376268
Ba    1.401013  1.891858  3.865619
