32
Energy: -241840.690324 eV PBE+vdW (tier 2 basis)
C    -0.878931  -0.007943  -0.177537
C    -0.602352  -0.209513  1.278254
O    0.565078  -0.498635  1.674662
H    -1.913867  0.276409  -0.393453
H    -0.647621  -0.941174  -0.710279
H    -0.202956  0.761458  -0.572837
N    -1.625743  -0.080909  2.137304
C    -1.639905  -0.356099  3.594508
C    -0.823212  0.724243  4.329995
O    0.435587  0.615063  4.441294
H    -2.526873  0.137125  1.721513
H    -2.692913  -0.235391  3.876670
C    -1.243036  -1.800627  3.956621
C    -1.883986  -2.346335  5.248327
C    -1.524547  -3.828100  5.406093
C    -1.504906  -1.550143  6.502133
H    -0.146395  -1.899924  4.046615
H    -1.537403  -2.441083  3.113385
H    -2.978170  -2.279102  5.113799
H    -2.031555  -4.259084  6.277774
H    -0.442767  -3.962706  5.561486
H    -1.817975  -4.417785  4.527556
H    -1.947100  -2.009657  7.394343
H    -1.859673  -0.509565  6.482036
H    -0.414464  -1.532600  6.654157
N    -1.445342  1.783656  4.830339
C    -2.880621  2.087458  4.831354
H    -0.833310  2.447406  5.304398
H    -3.015488  3.067027  5.297925
H    -3.443758  1.350201  5.417658
H    -3.278078  2.142944  3.811104
Ba    2.322948  -0.462012  3.332111
