32
Energy: -241839.543804 eV PBE+vdW (tier 2 basis)
C    0.577521  1.093015  0.843035
C    -0.021762  -0.049712  1.589181
O    0.602136  -1.206054  1.573908
H    0.154958  2.056447  1.142420
H    0.391237  0.961041  -0.233445
H    1.663635  1.107773  0.990505
N    -1.142070  0.034353  2.246645
C    -2.058620  1.154182  2.475721
C    -2.980336  0.549380  3.585590
O    -2.826451  -0.649714  3.881862
H    -1.536986  -0.770308  2.813293
H    -1.495085  1.998992  2.901353
C    -2.827864  1.605838  1.200668
C    -2.761046  3.115149  0.894483
C    -3.419808  3.389804  -0.462483
C    -3.389844  3.982067  1.992224
H    -3.880060  1.294033  1.282750
H    -2.424093  1.050035  0.342165
H    -1.694766  3.397099  0.815639
H    -4.489040  3.134380  -0.443084
H    -2.951417  2.808624  -1.268495
H    -3.339881  4.451207  -0.727693
H    -3.341053  5.044367  1.722682
H    -2.870630  3.895451  2.960698
H    -4.455078  3.738424  2.129788
N    -3.881443  1.364003  4.133215
C    -4.841367  0.948068  5.153762
H    -3.925812  2.323163  3.799329
H    -5.861752  0.972247  4.751292
H    -4.779360  1.619740  6.017610
H    -4.600773  -0.071113  5.466044
Ba    1.619649  -3.232245  1.643496
