32
Energy: -241839.443436 eV PBE+vdW (tier 2 basis)
C    -0.785291  1.968335  0.086937
C    -0.310953  1.253244  1.305525
O    0.844012  1.601542  1.824843
H    -1.851815  1.817082  -0.103429
H    -0.226421  1.605189  -0.788513
H    -0.583531  3.041461  0.185178
N    -0.971613  0.291383  1.880815
C    -2.250320  -0.354221  1.563544
C    -2.535149  -1.110060  2.897929
O    -1.603492  -1.201602  3.719280
H    -0.637135  -0.165702  2.771011
H    -3.018695  0.420634  1.420256
C    -2.204731  -1.235773  0.288559
C    -1.296341  -2.484166  0.226391
C    0.198845  -2.190355  0.418018
C    -1.752397  -3.641887  1.124500
H    -1.942573  -0.568836  -0.547261
H    -3.238772  -1.548322  0.087097
H    -1.416541  -2.825580  -0.815290
H    0.438225  -1.966399  1.468788
H    0.793753  -3.069076  0.138485
H    0.538029  -1.352907  -0.211092
H    -2.821500  -3.858043  0.995966
H    -1.206286  -4.557487  0.864211
H    -1.562137  -3.449644  2.188347
N    -3.753078  -1.612039  3.123813
C    -4.939618  -1.578767  2.275107
H    -3.826728  -2.117101  4.004844
H    -5.826380  -1.579971  2.917081
H    -4.988731  -2.452504  1.611127
H    -4.970004  -0.664450  1.672694
Ba    2.835059  2.097277  2.790697
