32
Energy: -241839.494175 eV PBE+vdW (tier 2 basis)
C    -0.044337  -0.410866  -0.047998
C    -0.109868  0.050346  1.368011
O    1.012790  0.159881  2.040972
H    0.707329  0.176206  -0.591009
H    -1.003842  -0.332079  -0.565982
H    0.278359  -1.461717  -0.073577
N    -1.222146  0.350041  1.975624
C    -2.621947  0.336864  1.529365
C    -3.268441  1.284308  2.587054
O    -2.659697  1.456097  3.656868
H    -1.241463  0.713451  2.963818
H    -2.702109  0.773963  0.523502
C    -3.175801  -1.107736  1.539474
C    -4.655686  -1.275003  1.111050
C    -4.814127  -2.540538  0.257132
C    -5.605840  -1.314850  2.315651
H    -3.026131  -1.531338  2.544509
H    -2.536525  -1.689349  0.857853
H    -4.931035  -0.419045  0.466365
H    -4.205109  -2.495909  -0.656322
H    -5.859437  -2.677621  -0.046445
H    -4.516681  -3.435381  0.822866
H    -6.652187  -1.335829  1.986077
H    -5.485818  -0.457305  2.989603
H    -5.431686  -2.224450  2.908082
N    -4.427406  1.862052  2.262395
C    -5.195465  2.704706  3.175960
H    -4.849678  1.622043  1.370870
H    -5.567473  3.583337  2.638271
H    -4.541875  3.022543  3.992309
H    -6.046639  2.149517  3.592233
Ba    2.919105  0.391873  3.251937
