32
Energy: -241840.186992 eV PBE+vdW (tier 2 basis)
C    0.537476  0.474795  0.810700
C    0.114286  0.146956  2.206198
O    0.971605  -0.093491  3.111951
H    0.675242  1.562058  0.696695
H    -0.191663  0.143911  0.062932
H    1.506287  0.001661  0.617812
N    -1.196137  0.130178  2.529071
C    -2.168609  1.105011  2.043442
C    -1.724295  2.497186  2.558401
O    -0.832473  2.586914  3.468662
H    -1.406796  -0.259215  3.447766
H    -2.146449  1.117000  0.943042
C    -3.593934  0.739911  2.519231
C    -4.351842  -0.261960  1.624162
C    -3.645383  -1.614678  1.479294
C    -5.775610  -0.435464  2.166722
H    -4.189464  1.659726  2.595449
H    -3.526209  0.354017  3.552236
H    -4.425768  0.196721  0.621207
H    -4.252993  -2.293329  0.868247
H    -3.505819  -2.099718  2.457461
H    -2.663973  -1.541280  0.990623
H    -6.361500  -1.086410  1.506573
H    -6.306853  0.522943  2.243293
H    -5.768692  -0.900073  3.163480
N    -2.269180  3.592844  2.053492
C    -3.284641  3.721541  1.004789
H    -1.954424  4.462610  2.484033
H    -3.022458  4.574277  0.369589
H    -4.273466  3.899609  1.446653
H    -3.325390  2.823519  0.382767
Ba    1.063722  1.712809  4.793037
