32
Energy: -241840.742402 eV PBE+vdW (tier 2 basis)
C    -0.051418  -0.836010  0.265830
C    -0.048821  -0.408013  1.701287
O    1.008531  -0.507075  2.384639
H    0.247474  -1.891727  0.212993
H    0.708571  -0.261350  -0.280361
H    -1.018419  -0.713194  -0.232523
N    -1.201695  0.071959  2.200278
C    -1.592093  0.539978  3.556066
C    -0.773396  1.757023  4.020651
O    0.468866  1.693790  4.245892
H    -1.966712  0.087644  1.531873
H    -2.610001  0.916018  3.385862
C    -1.792329  -0.589816  4.601459
C    -0.613118  -1.406743  5.183171
C    0.031993  -0.744808  6.415637
C    -1.101585  -2.814802  5.558764
H    -2.484579  -1.291971  4.113742
H    -2.364826  -0.151352  5.434649
H    0.130786  -1.548816  4.375571
H    0.281519  0.321304  6.284214
H    0.920948  -1.301069  6.759410
H    -0.662342  -0.768003  7.267453
H    -0.298678  -3.409701  6.012958
H    -1.468606  -3.360428  4.680482
H    -1.921079  -2.758653  6.289014
N    -1.457252  2.880881  4.207696
C    -0.895368  4.141868  4.689895
H    -2.449648  2.876814  3.987574
H    -0.818017  4.860598  3.864137
H    0.097222  3.958447  5.106946
H    -1.551128  4.555581  5.463814
Ba    2.381199  0.161626  4.263927
