32
Energy: -241840.717843 eV PBE+vdW (tier 2 basis)
C    -1.392634  0.182696  -0.349994
C    -0.926925  -0.046655  1.052790
O    0.306926  0.010079  1.332229
H    -2.480993  0.149770  -0.463793
H    -0.943700  -0.583754  -0.997425
H    -1.021966  1.154577  -0.701071
N    -1.855437  -0.312983  1.985689
C    -1.667603  -0.704496  3.401423
C    -1.108219  0.464110  4.232802
O    0.133134  0.730878  4.216005
H    -2.813627  -0.345485  1.649136
H    -2.682744  -0.912147  3.757083
C    -0.849091  -1.991207  3.590631
C    -0.821456  -2.518236  5.040106
C    -2.195561  -3.026113  5.496714
C    0.238089  -3.619610  5.163578
H    0.184358  -1.844821  3.235191
H    -1.277629  -2.756170  2.925108
H    -0.520583  -1.689108  5.706458
H    -2.536153  -3.863224  4.870896
H    -2.975671  -2.251442  5.471559
H    -2.146670  -3.388009  6.530865
H    1.241708  -3.256481  4.892081
H    0.004571  -4.473435  4.511682
H    0.295380  -3.996129  6.191934
N    -1.928937  1.182743  4.986152
C    -3.380572  1.048721  5.158712
H    -1.469197  1.914918  5.527723
H    -3.731633  1.916439  5.724044
H    -3.631444  0.144472  5.727033
H    -3.897979  1.045682  4.192966
Ba    2.132258  0.403422  2.863694
