32
Energy: -241840.717188 eV PBE+vdW (tier 2 basis)
C    -0.098513  -1.030203  0.418832
C    -0.376775  -0.460436  1.773645
O    0.205492  -0.929190  2.794227
H    -0.633103  -0.523662  -0.391265
H    -0.379481  -2.092777  0.422017
H    0.980644  -0.986023  0.222149
N    -1.263591  0.548490  1.856084
C    -1.809983  1.206586  3.064035
C    -0.749834  2.123454  3.694063
O    0.272711  1.635556  4.262850
H    -1.672450  0.842390  0.973698
H    -2.613030  1.846559  2.681753
C    -2.472771  0.201408  4.034546
C    -2.982821  0.761098  5.385059
C    -4.278231  0.043919  5.789280
C    -1.938254  0.639159  6.507349
H    -1.811603  -0.660152  4.215517
H    -3.318290  -0.219714  3.472405
H    -3.218779  1.832547  5.260044
H    -5.064261  0.183386  5.036247
H    -4.660072  0.426852  6.743526
H    -4.114031  -1.037415  5.906860
H    -2.347308  0.968771  7.470641
H    -1.043359  1.256254  6.331519
H    -1.657583  -0.422315  6.651057
N    -0.915710  3.439493  3.646896
C    -2.006171  4.217473  3.044618
H    -0.163762  3.969871  4.087308
H    -2.971677  3.972939  3.503117
H    -2.052697  4.067063  1.959281
H    -1.802414  5.275587  3.230108
Ba    1.141707  -0.526971  4.999533
