32
Energy: -241839.644525 eV PBE+vdW (tier 2 basis)
C    0.267496  1.153821  0.449575
C    -0.295025  0.306149  1.542519
O    0.443963  0.023414  2.571861
H    0.601981  2.117099  0.857423
H    -0.454516  1.336839  -0.352049
H    1.149927  0.653576  0.026450
N    -1.523095  -0.138590  1.441150
C    -2.262757  -1.085783  2.276314
C    -3.320981  -1.633122  1.257493
O    -3.507923  -0.976156  0.228251
H    -2.096918  0.026855  0.579471
H    -1.585758  -1.887839  2.603342
C    -2.992369  -0.416086  3.461933
C    -2.153518  0.036008  4.675430
C    -3.030967  0.820080  5.660834
C    -1.484986  -1.152953  5.386707
H    -3.759951  -1.113257  3.830145
H    -3.543163  0.449005  3.065528
H    -1.384929  0.745684  4.294770
H    -2.459198  1.167136  6.532328
H    -3.851172  0.193045  6.036719
H    -3.476710  1.700058  5.181337
H    -0.922658  -0.844277  6.289939
H    -0.848850  -1.774120  4.725542
H    -2.241211  -1.849996  5.775443
N    -3.989888  -2.760556  1.546134
C    -3.862793  -3.643726  2.697588
H    -4.691144  -3.002890  0.847959
H    -4.029861  -4.676461  2.373139
H    -4.597213  -3.405776  3.480599
H    -2.853733  -3.593979  3.121888
Ba    1.397291  0.007056  4.661447
