32
Energy: -241840.848691 eV PBE+vdW (tier 2 basis)
C    -3.775786  -0.671921  -1.681342
C    -2.845495  -0.835299  -0.523892
O    -1.588932  -0.742753  -0.682917
H    -4.827442  -0.827644  -1.419686
H    -3.494464  -1.367992  -2.481907
H    -3.656202  0.344124  -2.084124
N    -3.365288  -1.067567  0.688935
C    -2.612491  -1.083579  1.955712
C    -1.884606  -2.436565  2.114799
O    -0.740841  -2.585499  1.580228
H    -4.379390  -1.118626  0.759382
H    -1.809846  -0.338770  1.856340
C    -3.533026  -0.664672  3.108681
C    -2.850950  -0.475630  4.481215
C    -1.700659  0.537839  4.424354
C    -3.907179  -0.057388  5.511989
H    -4.375571  -1.374366  3.203571
H    -3.993544  0.292225  2.813338
H    -2.433173  -1.444604  4.806253
H    -0.861186  0.201050  3.796204
H    -1.290025  0.704355  5.427587
H    -2.043657  1.512353  4.046419
H    -4.729734  -0.782926  5.574085
H    -4.340145  0.921624  5.261929
H    -3.462069  0.023711  6.510857
N    -2.482175  -3.403732  2.787497
C    -1.945693  -4.742966  3.025303
H    -3.383037  -3.184114  3.207138
H    -0.918305  -4.789771  2.658535
H    -2.559401  -5.489646  2.506231
H    -1.961476  -4.953966  4.100808
Ba    0.618791  -1.601288  -0.197523
