32
Energy: -241839.44107 eV PBE+vdW (tier 2 basis)
C    -1.898821  2.988241  1.274526
C    -1.623212  1.994292  2.350944
O    -0.670435  2.257993  3.216110
H    -2.140741  3.959207  1.727931
H    -2.718420  2.688125  0.616195
H    -0.993794  3.128184  0.667219
N    -2.280694  0.878014  2.481186
C    -3.366830  0.289210  1.685134
C    -3.921674  -0.763453  2.692960
O    -3.134776  -1.159262  3.572988
H    -2.083914  0.189514  3.252328
H    -4.105109  1.060517  1.433916
C    -2.781871  -0.384891  0.415653
C    -3.780791  -0.784095  -0.684822
C    -4.463930  0.434351  -1.316238
C    -3.043625  -1.608703  -1.749169
H    -2.208077  -1.265860  0.741045
H    -2.052229  0.315110  -0.024511
H    -4.548659  -1.438473  -0.243660
H    -5.182001  0.123323  -2.085039
H    -3.725599  1.085995  -1.807703
H    -5.023632  1.049152  -0.595086
H    -2.242789  -1.022526  -2.223505
H    -3.733776  -1.922981  -2.541831
H    -2.593831  -2.514014  -1.320688
N    -5.172027  -1.226864  2.584799
C    -6.276401  -0.786853  1.738845
H    -5.383617  -1.953634  3.267302
H    -6.541350  -1.557032  1.003674
H    -6.019139  0.130660  1.204291
H    -7.152810  -0.583018  2.365768
Ba    0.956445  2.644971  4.750742
