15
Energy: -29403.5036398 eV PBE+vdW (tier 2 basis)
N    -0.114204  -0.673964  -0.439838
C    0.056900  -1.218574  0.967353
C    0.162582  -0.102682  1.994870
O    0.324242  -0.327496  3.193958
H    -0.226706  -1.452108  -1.109046
H    -0.938213  -0.059904  -0.531849
H    -0.846268  -1.804675  1.191928
C    1.299612  -2.188758  1.031231
O    1.445430  -2.672982  2.303561
H    2.197211  -1.636004  0.685179
H    1.106981  -2.997879  0.299636
H    0.706310  -0.124726  -0.740808
O    0.084913  1.108778  1.468819
H    0.160143  1.807739  2.156794
Ca    1.236066  -2.236766  4.227213
