15
Energy: -29402.9060497 eV PBE+vdW (tier 2 basis)
N    -1.259701  0.628612  1.388982
C    -1.505525  1.247729  2.726975
C    -0.185385  1.392304  3.453719
O    0.782799  0.664709  3.127348
H    -2.128538  0.091432  1.199675
H    -1.256428  1.369980  0.678602
H    -2.011467  2.219319  2.621839
C    -2.440125  0.264338  3.543631
O    -3.399031  -0.271275  2.667233
H    -2.874960  0.794870  4.401083
H    -1.837336  -0.572117  3.933396
H    -4.272221  0.136709  2.798839
O    -0.029982  2.192419  4.467132
H    -0.803571  2.760665  4.663427
Ca    0.840472  -0.600691  1.401119
