15
Energy: -29403.7737225 eV PBE+vdW (tier 2 basis)
N    0.084221  -0.575665  0.036580
C    0.041541  -0.099964  1.470826
C    1.398711  -0.400122  2.115941
O    1.535203  -0.243565  3.370154
H    -0.293242  -1.548963  0.056942
H    1.057479  -0.604747  -0.307894
H    -0.107785  0.988965  1.491992
C    -1.120104  -0.823650  2.164444
O    -0.930271  -2.190662  1.808458
H    -2.081996  -0.426493  1.801651
H    -1.053186  -0.648007  3.248161
H    -1.696967  -2.726150  2.074573
O    2.382335  -0.773488  1.383583
H    -0.490093  -0.000330  -0.593004
Ca    3.639151  -0.847160  3.231594
