15
Energy: -29403.5808449 eV PBE+vdW (tier 2 basis)
N    0.017061  -0.171732  -0.100937
C    -0.124014  0.232660  1.354270
C    1.285548  0.385934  1.930843
O    2.219364  -0.250014  1.339151
H    -0.754049  -0.764469  -0.439407
H    0.062903  0.655197  -0.715726
H    -0.717440  1.152474  1.408080
C    -0.772167  -0.850043  2.246266
O    0.247028  -1.798473  2.694117
H    -1.569236  -1.388860  1.714134
H    -1.208391  -0.340532  3.115447
H    -0.205934  -2.611497  2.979109
O    1.389704  0.817179  3.114031
H    0.923148  -0.675023  -0.194568
Ca    2.588476  -1.004800  3.443190
