15
Energy: -29402.6038189 eV PBE+vdW (tier 2 basis)
N    -0.344913  -0.770786  -0.317515
C    -0.243583  0.064182  0.933504
C    1.191732  0.511513  1.306257
O    1.517328  0.696522  2.448178
H    0.038857  -0.213318  -1.093099
H    0.321288  -1.552919  -0.242015
H    -0.814225  0.990040  0.747018
C    -0.854208  -0.672904  2.116375
O    -2.216974  -1.111026  1.703154
H    -0.940608  -0.008693  2.982499
H    -0.281974  -1.567008  2.399082
H    -2.746482  -1.278870  2.505510
O    1.933017  0.668218  0.198019
H    2.826437  0.992431  0.444364
Ca    -2.613691  -1.466381  -0.444332
