15
Energy: -29402.5602015 eV PBE+vdW (tier 2 basis)
N    -0.147557  -0.179143  0.013845
C    0.146739  -0.224196  1.410485
C    1.549986  -0.713249  1.811352
O    2.558432  -0.537039  1.070002
H    0.046039  0.705928  -0.444645
H    0.188381  -0.960992  -0.542098
H    0.097918  0.802036  1.819846
C    -0.977824  -1.046532  2.067060
O    -0.668274  -1.172981  3.548471
H    -1.055702  -2.057041  1.647352
H    -1.931408  -0.517733  2.000411
H    -1.232595  -1.827787  4.011285
O    1.729118  -1.316651  2.966860
H    0.358180  -1.389154  3.587569
Ca    3.958228  -1.369702  2.512685
