15
Energy: -29403.3411265 eV PBE+vdW (tier 2 basis)
N    -0.325306  -1.169468  0.150370
C    -0.081723  -0.287821  1.367250
C    1.440254  -0.133033  1.590955
O    2.058098  -0.621526  2.540156
H    -1.297834  -1.062716  -0.177794
H    0.294582  -0.969357  -0.648348
H    -0.496360  0.705414  1.142732
C    -0.768176  -0.981763  2.549751
O    -0.196010  -2.247225  2.727914
H    -1.854236  -1.051014  2.351575
H    -0.674241  -0.310297  3.426837
H    -0.204647  -2.153200  0.463316
O    1.989531  0.606557  0.652649
H    2.953643  0.739038  0.802284
Ca    1.469426  -2.465588  3.854352
