15
Energy: -29402.8937152 eV PBE+vdW (tier 2 basis)
N    0.509687  -0.436913  0.045598
C    0.260024  0.079483  1.431354
C    1.551545  0.006053  2.229045
O    2.494095  -0.712826  1.824558
H    0.570687  0.369477  -0.587953
H    -0.385014  -0.888635  -0.221417
H    -0.110273  1.115621  1.387279
C    -0.829925  -0.801320  2.110301
O    -1.825113  -0.941396  1.121672
H    -1.192656  -0.291172  3.017001
H    -0.404745  -1.777771  2.413611
H    -2.622421  -1.365687  1.482931
O    1.703317  0.631934  3.357568
H    0.950282  1.204313  3.614383
Ca    2.548751  -1.750944  -0.048828
