13
Energy: -8812.04097345 eV PBE+vdW (tier 2 basis)
N    0.283029  -0.009187  1.056989
C    0.472003  -0.226386  2.505461
C    1.981243  -0.153445  2.838160
O    2.769678  -0.195003  1.747272
H    -0.462687  -0.593508  0.682346
H    0.049818  0.960169  0.846917
H    2.114858  -0.213514  0.992186
H    -0.013462  0.555675  3.109754
C    -0.068309  -1.592498  2.932570
H    -1.159611  -1.633836  2.812409
H    0.171992  -1.779864  3.984868
H    0.382539  -2.394124  2.330228
O    2.405909  -0.090477  3.969839
