22
Energy: -12020.3044375 eV PBE+vdW (tier 2 basis)
N    -0.171990  0.485348  0.215598
C    0.207104  -0.059665  1.535826
C    1.717135  -0.408018  1.523154
O    2.351120  0.020812  0.416912
H    -0.810724  1.272890  0.299345
H    1.614974  0.445959  -0.112323
H    0.119118  0.760541  2.266536
C    -0.632755  -1.248110  2.054806
C    -0.579073  -2.448829  1.090113
C    -2.063414  -0.807227  2.379872
C    -1.105134  -3.754801  1.689555
H    -0.136697  -1.556165  2.988761
H    0.463893  -2.604147  0.772665
H    -1.153515  -2.222948  0.173666
H    -2.602428  -0.479851  1.477399
H    -2.069100  0.027506  3.095005
H    -2.644352  -1.623213  2.827316
H    -0.547301  -4.019866  2.598461
H    -0.995418  -4.584224  0.978671
H    -2.168927  -3.691508  1.955239
O    2.275379  -0.984486  2.430738
H    -0.631895  -0.221996  -0.358313
