22
Properties=species:S:1:pos:R:3:Z:I:1:forces:R:3 magmom=0 Energy=T energy=-12017.9639883 pbc="F F F" dipole="-1.9023353 0.4690495 -0.6175498"
N      -0.20888835       0.47319888       0.23229349        7      -0.02221865       0.00222838       0.01397230 
C       0.19527358      -0.06163349       1.53570344        6       0.01727596      -0.00252164       0.00315361 
C       1.69190753      -0.41387412       1.51485499        6       0.00117103      -0.03334443      -0.00281243 
O       2.35055685       0.00594796       0.43750400        8      -0.01695530       0.00642868       0.00290113 
H      -0.84524226       1.25192391       0.31539725        1      -0.00951231       0.00931850       0.03707932 
H       1.68767783       0.44521000      -0.12691487        1      -0.00394063       0.01901886      -0.02324221 
H       0.11440337       0.74666811       2.26673803        1       0.01485990       0.02525898      -0.01327522 
C      -0.62238295      -1.25216804       2.06116170        6      -0.00503047       0.01214620      -0.00237765 
C      -0.57160651      -2.43690706       1.09207759        6       0.00443958      -0.00135837      -0.00975677 
C      -2.04985548      -0.81692227       2.37139632        6      -0.01560901       0.00898657      -0.00804575 
C      -1.10161385      -3.73498240       1.69185701        6       0.00076629       0.00094426       0.00356674 
H      -0.13524314      -1.56080952       2.98848049        1       0.02060647       0.01710534      -0.00911538 
H       0.46259804      -2.59401187       0.77502649        1       0.00946320      -0.00129645      -0.01079519 
H      -1.15142853      -2.20520873       0.19251654        1       0.00701556      -0.00021438      -0.01681543 
H      -2.56403054      -0.49689542       1.46255443        1      -0.01892918       0.00158910      -0.00789540 
H      -2.05732857       0.01577594       3.07618760        1      -0.02096848      -0.00243226      -0.00225882 
H      -2.62830964      -1.62759335       2.81115882        1       0.00630296       0.00473638      -0.00179062 
H      -0.54776950      -3.99250031       2.59505679        1       0.00384133      -0.00573263      -0.00268223 
H      -0.99511055      -4.55752023       0.98561838        1      -0.00590850      -0.00381361       0.01918881 
H      -2.15661799      -3.65932281       1.95336984        1       0.00102664       0.00396757      -0.00553101 
O       2.22540173      -1.00182262       2.40995318        8       0.01751821      -0.02689297       0.03375812 
H      -0.65639103      -0.22855054      -0.34298955        1       0.01478539      -0.03412209       0.00277417 
