23
Properties=species:S:1:pos:R:3:Z:I:1:forces:R:3 magmom=0 Energy=T energy=-15095.8753751 pbc="F F F" dipole="-0.8516013 -0.4778327 -1.6937258"
N       0.41723372       0.19788306       0.22394029        7      -0.00559832      -0.01018111       0.01271035 
C      -0.09310368       0.11914542       1.59095216        6       0.01430228       0.01557214      -0.00251999 
C       1.02074044       0.47495730       2.59347063        6      -0.01655261      -0.00833932      -0.01321388 
O       0.89444834       0.32330951       3.77505113        8       0.01203893      -0.02802215      -0.02537129 
H      -0.26224343       0.57575784      -0.42004351        1      -0.01448354       0.00563200       0.01799243 
H       0.70030940      -0.71452403      -0.11679338        1       0.01923664       0.00419985       0.01360643 
H      -0.83403555       0.91161154       1.72120937        1       0.02308136       0.00450442       0.00091722 
C      -0.75693036      -1.21525492       1.97643171        6      -0.01317572       0.03881590       0.00368167 
C       0.10655312      -2.40484451       1.65412847        6      -0.01564398       0.01822609       0.00486658 
C       1.12508640      -2.80598254       2.51757321        6       0.00052733       0.00933624      -0.00213304 
C      -0.07778786      -3.10388966       0.46411591        6      -0.00268716       0.00156920      -0.00420422 
C       1.93797920      -3.88183944       2.19253420        6       0.00176146       0.00091557      -0.00927556 
C       0.73693212      -4.17799861       0.13395054        6       0.00490289      -0.00888095       0.00688290 
C       1.74852563      -4.56715340       0.99948456        6       0.00336892      -0.02158955       0.00122729 
H      -1.70356377      -1.29402880       1.44154206        1      -0.01371992       0.00231492      -0.01953905 
H      -0.97372888      -1.17853391       3.04261755        1      -0.00772493       0.01200186       0.01887884 
H       1.26959578      -2.27208124       3.44845663        1       0.00661956       0.00161383       0.01325183 
H      -0.87972516      -2.80886834      -0.20262900        1      -0.00755457      -0.00873358      -0.01616268 
H       2.71850514      -4.18979839       2.87537995        1       0.00156904       0.00737768      -0.01019201 
H       0.57500103      -4.71282543      -0.79237581        1       0.01367097      -0.00366567       0.00431657 
H       2.38153647      -5.40683617       0.74955905        1       0.01695308      -0.01567165      -0.00180574 
O       2.11076676       1.00238177       2.04733654        8       0.00122410      -0.01552988       0.00424217 
H       1.96390614       1.00041196       1.08310876        1      -0.02211576      -0.00146584       0.00184312 
