  MPI-parallelism will be employed.
------------------------------------------------------------
          Invoking FHI-aims ...
          Version 031011
          Git rev. (modified): 1cc2a92... Merge branch master of atalla[at]fhiaim[...]
          Compiled on 2016/09/21 at 15:08:42

          When using FHI-aims, please cite the following reference:

          Volker Blum, Ralf Gehrke, Felix Hanke, Paula Havu,
          Ville Havu, Xinguo Ren, Karsten Reuter, and Matthias Scheffler,
          'Ab Initio Molecular Simulations with Numeric Atom-Centered Orbitals: FHI-aims',
          Computer Physics Communications 180, 2175-2196 (2009)

------------------------------------------------------------

  Date     :  20161129, Time     :  145307.638
  Time zero on CPU 1             :   0.320000000000000E-01  s.
  Internal wall clock time zero  :           249663187.638  s.

  Using        8 parallel tasks.
  Task        0 on host dirac reporting.
  Task        1 on host dirac reporting.
  Task        2 on host dirac reporting.
  Task        3 on host dirac reporting.
  Task        4 on host dirac reporting.
  Task        5 on host dirac reporting.
  Task        6 on host dirac reporting.
  Task        7 on host dirac reporting.
  Obtaining array dimensions for all initial allocations:
  Parsing control.in ...
  Parsing geometry.in ...
 
  Basic array size parameters: 
  | Number of species                 :        5
  | Number of atoms                   :       23
  | Max. basis fn. angular momentum   :        4
  | Max. atomic/ionic basis occupied n:        6
  | Max. number of basis fn. types    :        3
  | Max. radial fns per species/type  :       14
  | Max. logarithmic grid size        :     1489
  | Max. radial integration grid size :      147
  | Max. angular integration grid size:      434
  | Max. angular grid division number :        8
  | Radial grid for Hartree potential :     1489
  | Number of spin channels           :        1

------------------------------------------------------------
          Reading file control.in.
------------------------------------------------------------
  XC: Using PBE gradient-corrected functionals.
  Spin treatment: No spin polarisation.
  Scalar relativistic treatment of kinetic energy: on-site free-atom approximation to ZORA.
  Using non-empirical van der Waals correction (Hirshfeld partitioning):
  Charged system requested: Charge =   0.200000E+01.
  Occupation type: Gaussian broadening, width =   0.500000E-01 eV.
  Using pulay charge density mixing.
  Pulay mixing - number of memorized iterations:   10
  Charge density mixing - mixing parameter:     0.5000
  Convergence accuracy of self-consistent charge density: 0.1000E-03
  Convergence accuracy of sum of eigenvalues: 0.1000E-01
  Convergence accuracy of total energy: 0.1000E-04
  Convergence accuracy of forces: 0.1000E-03
  Maximum number of s.-c. iterations  :  1000
 
  Reading configuration options for species H                   .
  | Found nuclear charge :   1.0000
  | Found atomic mass :    1.00794000000000      amu
  | Found l_max for Hartree potential  :   6
  | Found cutoff potl. onset [A], width [A], scale factor :    4.00000    2.00000    1.00000
  | Threshold for basis-dependent cutoff potential is   0.100000E-03
  | Found data for basic radial integration grid :    24 points, outermost radius =    7.000 A
  | Found multiplier for basic radial grid :   2
  | Found angular grid specification: user-specified.
  | Specified grid contains     6 separate shells.
  | Check grid settings after all constraints further below.
  | Found free-atom valence shell :  1 s   1.000
  | Found free-ion valence shell :  1 s   0.500
  | Found hydrogenic basis function :  2 s   2.100
  | Found hydrogenic basis function :  2 p   3.500
  | Found hydrogenic basis function :  1 s   0.850
  | Found hydrogenic basis function :  2 p   3.700
  | Found hydrogenic basis function :  2 s   1.200
  | Found hydrogenic basis function :  3 d   7.000
  Species H                   : Missing cutoff potential type.
  Defaulting to exp(1/x)/(1-x)^2 type cutoff potential.
  Species H : No 'logarithmic' tag. Using default grid for free atom:
  | Default logarithmic grid data [bohr] : 0.1000E-03 0.1000E+03 0.1012E+01
  Species H : On-site basis accuracy parameter (for Gram-Schmidt orthonormalisation) not specified.
  Using default value basis_acc =  0.1000000E-03.
  Species H                   : Using default innermost maximum threshold i_radial=  2 for radial functions.
  Species H                   : Default cutoff onset for free atom density etc. : 0.40000000E+01 AA.
  Species H                   : Basic radial grid will be enhanced according to radial_multiplier =   2, to contain    49 grid points.
 
  Reading configuration options for species C                   .
  | Found nuclear charge :   6.0000
  | Found atomic mass :    12.0107000000000      amu
  | Found l_max for Hartree potential  :   6
  | Found cutoff potl. onset [A], width [A], scale factor :    4.00000    2.00000    1.00000
  | Threshold for basis-dependent cutoff potential is   0.100000E-03
  | Found data for basic radial integration grid :    34 points, outermost radius =    7.000 A
  | Found multiplier for basic radial grid :   2
  | Found angular grid specification: user-specified.
  | Specified grid contains     6 separate shells.
  | Check grid settings after all constraints further below.
  | Found free-atom valence shell :  2 s   2.000
  | Found free-atom valence shell :  2 p   2.000
  | Found free-ion valence shell :  2 s   1.000
  | Found free-ion valence shell :  2 p   1.000
  | Found hydrogenic basis function :  2 p   1.700
  | Found hydrogenic basis function :  3 d   6.000
  | Found hydrogenic basis function :  2 s   4.900
  | Found hydrogenic basis function :  4 f   9.800
  | Found hydrogenic basis function :  3 p   5.200
  | Found hydrogenic basis function :  3 s   4.300
  | Found hydrogenic basis function :  5 g  14.400
  | Found hydrogenic basis function :  3 d   6.200
  Species C                   : Missing cutoff potential type.
  Defaulting to exp(1/x)/(1-x)^2 type cutoff potential.
  Species C : No 'logarithmic' tag. Using default grid for free atom:
  | Default logarithmic grid data [bohr] : 0.1000E-03 0.1000E+03 0.1012E+01
  Species C : On-site basis accuracy parameter (for Gram-Schmidt orthonormalisation) not specified.
  Using default value basis_acc =  0.1000000E-03.
  Species C                   : Using default innermost maximum threshold i_radial=  2 for radial functions.
  Species C                   : Default cutoff onset for free atom density etc. : 0.40000000E+01 AA.
  Species C                   : Basic radial grid will be enhanced according to radial_multiplier =   2, to contain    69 grid points.
 
  Reading configuration options for species N                   .
  | Found nuclear charge :   7.0000
  | Found atomic mass :    14.0067000000000      amu
  | Found l_max for Hartree potential  :   6
  | Found cutoff potl. onset [A], width [A], scale factor :    4.00000    2.00000    1.00000
  | Threshold for basis-dependent cutoff potential is   0.100000E-03
  | Found data for basic radial integration grid :    35 points, outermost radius =    7.000 A
  | Found multiplier for basic radial grid :   2
  | Found angular grid specification: user-specified.
  | Specified grid contains     6 separate shells.
  | Check grid settings after all constraints further below.
  | Found free-atom valence shell :  2 s   2.000
  | Found free-atom valence shell :  2 p   3.000
  | Found free-ion valence shell :  2 s   1.000
  | Found free-ion valence shell :  2 p   2.000
  | Found hydrogenic basis function :  2 p   1.800
  | Found hydrogenic basis function :  3 d   6.800
  | Found hydrogenic basis function :  3 s   5.800
  | Found hydrogenic basis function :  4 f  10.800
  | Found hydrogenic basis function :  3 p   5.800
  | Found hydrogenic basis function :  1 s   0.800
  | Found hydrogenic basis function :  5 g  16.000
  | Found hydrogenic basis function :  3 d   4.900
  Species N                   : Missing cutoff potential type.
  Defaulting to exp(1/x)/(1-x)^2 type cutoff potential.
  Species N : No 'logarithmic' tag. Using default grid for free atom:
  | Default logarithmic grid data [bohr] : 0.1000E-03 0.1000E+03 0.1012E+01
  Species N : On-site basis accuracy parameter (for Gram-Schmidt orthonormalisation) not specified.
  Using default value basis_acc =  0.1000000E-03.
  Species N                   : Using default innermost maximum threshold i_radial=  2 for radial functions.
  Species N                   : Default cutoff onset for free atom density etc. : 0.40000000E+01 AA.
  Species N                   : Basic radial grid will be enhanced according to radial_multiplier =   2, to contain    71 grid points.
 
  Reading configuration options for species O                   .
  | Found nuclear charge :   8.0000
  | Found atomic mass :    15.9994000000000      amu
  | Found l_max for Hartree potential  :   6
  | Found cutoff potl. onset [A], width [A], scale factor :    4.00000    2.00000    1.00000
  | Threshold for basis-dependent cutoff potential is   0.100000E-03
  | Found data for basic radial integration grid :    36 points, outermost radius =    7.000 A
  | Found multiplier for basic radial grid :   2
  | Found angular grid specification: user-specified.
  | Specified grid contains     6 separate shells.
  | Check grid settings after all constraints further below.
  | Found free-atom valence shell :  2 s   2.000
  | Found free-atom valence shell :  2 p   4.000
  | Found free-ion valence shell :  2 s   1.000
  | Found free-ion valence shell :  2 p   3.000
  | Found hydrogenic basis function :  2 p   1.800
  | Found hydrogenic basis function :  3 d   7.600
  | Found hydrogenic basis function :  3 s   6.400
  | Found hydrogenic basis function :  4 f  11.600
  | Found hydrogenic basis function :  3 p   6.200
  | Found hydrogenic basis function :  3 d   5.600
  | Found hydrogenic basis function :  5 g  17.600
  | Found hydrogenic basis function :  1 s   0.750
  Species O                   : Missing cutoff potential type.
  Defaulting to exp(1/x)/(1-x)^2 type cutoff potential.
  Species O : No 'logarithmic' tag. Using default grid for free atom:
  | Default logarithmic grid data [bohr] : 0.1000E-03 0.1000E+03 0.1012E+01
  Species O : On-site basis accuracy parameter (for Gram-Schmidt orthonormalisation) not specified.
  Using default value basis_acc =  0.1000000E-03.
  Species O                   : Using default innermost maximum threshold i_radial=  2 for radial functions.
  Species O                   : Default cutoff onset for free atom density etc. : 0.40000000E+01 AA.
  Species O                   : Basic radial grid will be enhanced according to radial_multiplier =   2, to contain    73 grid points.
 
  Reading configuration options for species Hg                  .
  | Found nuclear charge :  80.0000
  | Found atomic mass :    200.590000000000      amu
  | Found l_max for Hartree potential  :   6
  | Found cutoff potl. onset [A], width [A], scale factor :    4.00000    2.00000    1.00000
  | Threshold for basis-dependent cutoff potential is   0.100000E-03
  | Found data for basic radial integration grid :    73 points, outermost radius =    7.000 A
  | Found multiplier for basic radial grid :   2
  | Found angular grid specification: user-specified.
  | Specified grid contains     6 separate shells.
  | Check grid settings after all constraints further below.
  | Found free-atom valence shell :  6 s   2.000
  | Found free-atom valence shell :  5 p   6.000
  | Found free-atom valence shell :  5 d  10.000
  | Found free-atom valence shell :  4 f  14.000
  | Found free-ion valence shell :  6 s   1.000
  | Found free-ion valence shell :  5 p   6.000
  | Found free-ion valence shell :  5 d   9.000
  | Found free-ion valence shell :  4 f  14.000
  | Found hydrogenic basis function :  2 p   1.700
  | Found hydrogenic basis function :  4 f   7.000
  | Found ionic basis function :  6 s , default cutoff radius.
  | Found hydrogenic basis function :  5 g   9.600
  | Found hydrogenic basis function :  4 p   4.700
  | Found hydrogenic basis function :  4 d   7.800
  Species Hg                  : Missing cutoff potential type.
  Defaulting to exp(1/x)/(1-x)^2 type cutoff potential.
  Species Hg: No 'logarithmic' tag. Using default grid for free atom:
  | Default logarithmic grid data [bohr] : 0.1000E-03 0.1000E+03 0.1012E+01
  | Will include ionic basis functions of  2.0-fold positive Hg                   ion.
  Species Hg: On-site basis accuracy parameter (for Gram-Schmidt orthonormalisation) not specified.
  Using default value basis_acc =  0.1000000E-03.
  Species Hg                  : Using default innermost maximum threshold i_radial=  2 for radial functions.
  Species Hg                  : Default cutoff onset for free atom density etc. : 0.40000000E+01 AA.
  Species Hg                  : Basic radial grid will be enhanced according to radial_multiplier =   2, to contain   147 grid points.
 
  Finished reading input file 'control.in'. Consistency checks are next.
 
  Target number of points in a grid batch is not set. Defaulting to  100
  Method for grid partitioning is not set. Defaulting to parallel hash+maxmin partitioning.
  Batch size limit is not set. Defaulting to    200
  By default, will store active basis functions for each batch.
  If in need of memory, prune_basis_once .false. can be used to disable this option.
  communication_type for Hartree potential was not specified.
  Defaulting to calc_hartree .
  Note that you may want to use 'communication_type shmem' instead,
  but only if you have built a code version with shared memory support.
  Pulay mixer: Number of initial linear mixing iterations not set.
  Defaulting to    0 iterations.
  Work space size for distributed Hartree potential not set.
  Defaulting to   0.200000E+03 MB.
  Algorithm-dependent basis array size parameters:
  | n_max_pulay                         :       10
  Geometry relaxation not requested: no relaxation will be performed.
  Handling of forces: Unphysical translation and rotation will be removed from forces.
  No accuracy limit for integral partition fn. given. Defaulting to 0.1000E-14.
  No threshold value for u(r) in integrations given. Defaulting to 0.1000E-05.
  No accuracy for occupation numbers given. Defaulting to 0.1000E-07.
  No threshold value for occupation numbers given. Defaulting to 0.0000E+00.
  No accuracy for fermi level given. Defaulting to 0.1000E-19.
  Maximum # of iterations to find E_F not set. Defaulting to  200.
  Preferred method for the eigenvalue solver ('KS_method') not specified in 'control.in'.
  Calling blacs routine to test compilation state
  The best choice would be 'elpa', but your version of FHI-aims is compiled without scalapack support.
  Defaulting to 'lapack_fast' instead (serial solution, time will not improve with more CPUs).
  Threshold for basis singularities not set.
  Default threshold for basis singularities: 0.1000E-04
  Partitioning for integrals was not defined. Using the partition function of Stratmann and coworkers.
  Partitioning for Hartree potential was not defined. Using partition_type for integrals.
  No q(lm)/r^(l+1) cutoff set for long-range Hartree potential.
  | Using default value of  0.100000E-09 .
  | Verify using the multipole_threshold keyword.
------------------------------------------------------------


------------------------------------------------------------
          Reading geometry description geometry.in.
------------------------------------------------------------
 * Warning: Initial charge and total charge of the system are inconsistent.
 * Selected charge in control.in:     2.0000* Sum of initial charges in geometry.in:     0.0000
  Input structure read successfully. 
  The structure contains   23 atoms,  and a total of    156.000 electrons.
 
  Input geometry:
  | No unit cell requested.
  | Atomic structure: 
  |       Atom                x [A]            y [A]            z [A]
  |    1: Species C          0.070281         0.115010         3.853369
  |    2: Species C          0.007028         0.425252         2.393093
  |    3: Species O          1.122821         0.328038         1.764648
  |    4: Species H          0.901907         0.661367         4.314867
  |    5: Species H          0.284948        -0.959996         3.967046
  |    6: Species H         -0.870911         0.340466         4.368524
  |    7: Species N         -1.175984         0.766156         1.849937
  |    8: Species C         -1.655956         0.642461         0.446379
  |    9: Species C         -1.580586         1.982746        -0.334419
  |   10: Species O         -0.484530         2.376820        -0.901700
  |   11: Species H         -1.930617         0.845413         2.531260
  |   12: Species H         -0.972464        -0.043072        -0.085463
  |   13: Species C         -3.039684        -0.007805         0.453628
  |   14: Species H         -3.412725        -0.135654        -0.570015
  |   15: Species H         -3.773487         0.572761         1.033752
  |   16: Species H         -2.977660        -1.004267         0.907895
  |   17: Species N         -2.654090         2.722781        -0.473569
  |   18: Species C         -2.720972         3.997685        -1.203151
  |   19: Species H         -3.530072         2.349792        -0.109313
  |   20: Species H         -2.974622         3.809033        -2.254821
  |   21: Species H         -1.754684         4.506317        -1.146860
  |   22: Species H         -3.501840         4.612977        -0.746271
  |   23: Species Hg         1.222897         1.309719        -0.146813
 
  Number of empty states per atom not set in control.in - providing a guess from actual geometry.
  | Total number of empty states used during s.c.f. cycle:       57
  If you use a very high smearing, use empty_states (per atom!) in control.in to increase this value.

  Structure-dependent array size parameters: 
  | Maximum number of distinct radial functions  :       60
  | Maximum number of basis functions            :      638
  | Number of Kohn-Sham states (occupied + empty):      136
------------------------------------------------------------

------------------------------------------------------------
          Preparing all fixed parts of the calculation.
------------------------------------------------------------
  Determining machine precision:
    2.225073858507201E-308
  Setting up grids for atomic and cluster calculations.

  Creating wave function, potential, and density for free atoms.

  Species: H

  List of occupied orbitals and eigenvalues:
    n    l              occ      energy [Ha]    energy [eV]
    1    0           1.0000        -0.238386        -6.4868


  Species: C

  List of occupied orbitals and eigenvalues:
    n    l              occ      energy [Ha]    energy [eV]
    1    0           2.0000       -10.049212      -273.4530
    2    0           2.0000        -0.504761       -13.7352
    2    1           2.0000        -0.193631        -5.2690


  Species: N

  List of occupied orbitals and eigenvalues:
    n    l              occ      energy [Ha]    energy [eV]
    1    0           2.0000       -14.144983      -384.9046
    2    0           2.0000        -0.682735       -18.5782
    2    1           3.0000        -0.260361        -7.0848


  Species: O

  List of occupied orbitals and eigenvalues:
    n    l              occ      energy [Ha]    energy [eV]
    1    0           2.0000       -18.927378      -515.0401
    2    0           2.0000        -0.880539       -23.9607
    2    1           4.0000        -0.331811        -9.0290


  Species: Hg

  List of occupied orbitals and eigenvalues:
    n    l              occ      energy [Ha]    energy [eV]
    1    0           2.0000     -3362.543057    -91499.4520
    2    0           2.0000      -552.313813    -15029.2235
    3    0           2.0000      -129.220887     -3516.2792
    4    0           2.0000       -28.284173      -769.6515
    5    0           2.0000        -4.338069      -118.0449
    6    0           2.0000        -0.249437        -6.7875
    2    1           6.0000      -475.220161    -12931.3985
    3    1           6.0000      -107.454843     -2923.9950
    4    1           6.0000       -21.198758      -576.8476
    5    1           6.0000        -2.440380       -66.4061
    3    2          10.0000       -84.679866     -2304.2564
    4    2          10.0000       -12.819085      -348.8251
    5    2          10.0000        -0.361912        -9.8481
    4    3          14.0000        -3.532478       -96.1236

  Creating fixed part of basis set: Ionic, confined, hydrogenic.
 
  H                    hydrogenic:
 
  List of hydrogenic basis orbitals: 
    n    l      effective z      eigenvalue [eV]  inner max. [A]     outer max. [A]     cutoff onset [A]   
    2    0         2.100000       -14.9965           0.193243           1.317208           4.000000
    2    1         3.500000       -41.6672           0.602369           0.602369           2.709566
    1    0         0.850000        -9.8292           0.624871           0.624871           4.000000
    2    1         3.700000       -46.5653           0.573622           0.573622           2.580256
    2    0         1.200000        -4.5995           0.334980           2.228188           4.000000
    3    2         7.000000       -74.0753           0.680699           0.680699           2.457117
 
 
  C                    hydrogenic:
 
  List of hydrogenic basis orbitals: 
    n    l      effective z      eigenvalue [eV]  inner max. [A]     outer max. [A]     cutoff onset [A]   
    2    1         1.700000        -9.8152           1.245706           1.245706           4.000000
    3    2         6.000000       -54.4226           0.792453           0.792453           2.860515
    2    0         4.900000       -81.6681           0.082559           0.562749           2.056339
    4    3         9.800000       -81.6681           0.863254           0.863254           2.690902
    3    1         5.200000       -40.8774           0.305389           1.215618           3.564598
    3    0         4.300000       -27.9508           0.091041           1.610311           4.000000
    5    4        14.400000      -112.8510           0.917666           0.917666           2.594002
    3    2         6.200000       -58.1113           0.763917           0.763917           2.757506
 
 
  N                    hydrogenic:
 
  List of hydrogenic basis orbitals: 
    n    l      effective z      eigenvalue [eV]  inner max. [A]     outer max. [A]     cutoff onset [A]   
    2    1         1.800000       -11.0118           1.177451           1.177451           4.000000
    3    2         6.800000       -69.9029           0.704619           0.704619           2.512557
    3    0         5.800000       -50.8549           0.067388           1.191934           3.287905
    4    3        10.800000       -99.1854           0.786571           0.786571           2.451870
    3    1         5.800000       -50.8549           0.274880           1.094176           3.169505
    1    0         0.800000        -8.7059           0.662839           0.662839           4.000000
    5    4        16.000000      -139.3222           0.825990           0.825990           2.334858
    3    2         4.900000       -36.2967           0.968267           0.968267           3.495147
 
 
  O                    hydrogenic:
 
  List of hydrogenic basis orbitals: 
    n    l      effective z      eigenvalue [eV]  inner max. [A]     outer max. [A]     cutoff onset [A]   
    2    1         1.800000       -11.0118           1.178562           1.178562           4.000000
    3    2         7.600000       -87.3182           0.624125           0.624125           2.252903
    3    0         6.400000       -61.9209           0.061167           1.081902           2.984386
    4    3        11.600000      -114.4238           0.731631           0.731631           2.280613
    3    1         6.200000       -58.1113           0.255680           1.030270           2.984386
    3    2         5.600000       -47.4081           0.847233           0.847233           3.058254
    5    4        17.600000      -168.5799           0.749740           0.749740           2.119318
    1    0         0.750000        -7.6499           0.705284           0.705284           4.000000
 
 
  Hg                   ion:

  List of free ionic orbitals and eigenvalues:
    n    l      energy [Ha]    energy [eV]
    1    0     -3363.476176    -91524.8435
    2    0      -553.182597    -15052.8643
    3    0      -130.078652     -3539.6202
    4    0       -29.138633      -792.9025
    5    0        -5.184779      -141.0850
    6    0        -0.908888       -24.7321
    2    1      -476.087207    -12954.9920
    3    1      -108.312102     -2947.3222
    4    1       -22.052939      -600.0910
    5    1        -3.279971       -89.2526
    3    2       -85.536808     -2327.5750
    4    2       -13.672947      -372.0598
    5    2        -1.161028       -31.5932
    4    3        -4.385637      -119.3393


  List of ionic basis orbitals and eigenvalues:
    n    l      energy [Ha]    energy [eV]    wfn radius [A]
    6    0        -0.908879       -24.7319       3.613604

 
  Hg                   hydrogenic:
 
  List of hydrogenic basis orbitals: 
    n    l      effective z      eigenvalue [eV]  inner max. [A]     outer max. [A]     cutoff onset [A]   
    2    1         1.700000        -9.8152           1.247488           1.247488           4.000000
    4    3         7.000000       -41.6672           1.202565           1.202565           3.748593
    5    4         9.600000       -50.1558           1.375658           1.375658           3.841376
    4    1         4.700000       -18.5997           0.317250           2.629664           4.000000
    4    2         7.800000       -51.7355           0.457803           1.444599           3.658052
 

  Adding cutoff potential to free-atom effective potential.
  Creating atomic-like basis functions for current effective potential.
  Assembling full basis from fixed parts.
  | Species H :   atomic orbital   1 s accepted.
  | Species H :    hydro orbital   2 s accepted.
  | Species H :    hydro orbital   1 s accepted.
  | Species H :    hydro orbital   2 s accepted.
  | Species H :    hydro orbital   2 p accepted.
  | Species H :    hydro orbital   2 p accepted.
  | Species H :    hydro orbital   3 d accepted.
  | Species C :    hydro orbital   2 s accepted.
  | Species C :   atomic orbital   1 s accepted.
  | Species C :   atomic orbital   2 s accepted.
  | Species C :    hydro orbital   3 s accepted.
  | Species C :    hydro orbital   3 p accepted.
  | Species C :   atomic orbital   2 p accepted.
  | Species C :    hydro orbital   2 p accepted.
  | Species C :    hydro orbital   3 d accepted.
  | Species C :    hydro orbital   3 d accepted.
  | Species C :    hydro orbital   4 f accepted.
  | Species C :    hydro orbital   5 g accepted.
  | Species N :    hydro orbital   3 s accepted.
  | Species N :   atomic orbital   1 s accepted.
  | Species N :   atomic orbital   2 s accepted.
  | Species N :    hydro orbital   1 s accepted.
  | Species N :    hydro orbital   3 p accepted.
  | Species N :   atomic orbital   2 p accepted.
  | Species N :    hydro orbital   2 p accepted.
  | Species N :    hydro orbital   3 d accepted.
  | Species N :    hydro orbital   3 d accepted.
  | Species N :    hydro orbital   4 f accepted.
  | Species N :    hydro orbital   5 g accepted.
  | Species O :    hydro orbital   3 s accepted.
  | Species O :   atomic orbital   1 s accepted.
  | Species O :   atomic orbital   2 s accepted.
  | Species O :    hydro orbital   1 s accepted.
  | Species O :    hydro orbital   3 p accepted.
  | Species O :   atomic orbital   2 p accepted.
  | Species O :    hydro orbital   2 p accepted.
  | Species O :    hydro orbital   3 d accepted.
  | Species O :    hydro orbital   3 d accepted.
  | Species O :    hydro orbital   4 f accepted.
  | Species O :    hydro orbital   5 g accepted.
  | Species Hg :    ionic orbital   6 s accepted.
  | Species Hg :   atomic orbital   1 s accepted.
  | Species Hg :   atomic orbital   2 s accepted.
  | Species Hg :   atomic orbital   3 s accepted.
  | Species Hg :   atomic orbital   4 s accepted.
  | Species Hg :   atomic orbital   5 s accepted.
  | Species Hg :   atomic orbital   6 s accepted.
  | Species Hg :   atomic orbital   2 p accepted.
  | Species Hg :   atomic orbital   3 p accepted.
  | Species Hg :   atomic orbital   4 p accepted.
  | Species Hg :   atomic orbital   5 p accepted.
  | Species Hg :    hydro orbital   2 p accepted.
  | Species Hg :    hydro orbital   4 p accepted.
  | Species Hg :    hydro orbital   4 d accepted.
  | Species Hg :   atomic orbital   3 d accepted.
  | Species Hg :   atomic orbital   4 d accepted.
  | Species Hg :   atomic orbital   5 d accepted.
  | Species Hg :    hydro orbital   4 f accepted.
  | Species Hg :   atomic orbital   4 f accepted.
  | Species Hg :    hydro orbital   5 g accepted.
 
  Basis size parameters after reduction:
  | Total number of radial functions:       60
  | Total number of basis functions :      638
 
  Preparing densities etc. for the partition functions (integrals / Hartree potential).

  Preparations completed.
  max(cpu_time)          :      0.540 s.
  Wall clock time (cpu1) :      0.561 s.
------------------------------------------------------------

------------------------------------------------------------
          Begin self-consistency loop: Initialization.

          Date     :  20161129, Time     :  145308.204
------------------------------------------------------------

  Initializing index lists of integration centers etc. from given atomic structure:
  | Number of centers in hamiltonian partition_tab :        23
  | Number of centers in hartree potential         :        23
  | Number of centers in hartree multipole         :        23
  | Number of centers in electron density summation:        23
  | Number of centers in basis integrals           :        23
  | Number of centers in integrals                 :        23
  Partitioning the integration grid into batches with parallel hashing+maxmin method.
  | Number of batches:     3848
  | Maximal batch size:     200
  | Minimal batch size:      50
  | Average batch size:     101.275
  | Standard deviation of batch sizes:      34.056

  Integration load balanced across     8 MPI tasks.
  Work distribution over tasks is as follows:
  Task     0 has      48665 integration points.
  Task     1 has      48685 integration points.
  Task     2 has      48784 integration points.
  Task     3 has      48702 integration points.
  Task     4 has      48702 integration points.
  Task     5 has      48716 integration points.
  Task     6 has      48684 integration points.
  Task     7 has      48768 integration points.
  Initializing partition tables, free-atom densities, potentials, etc.
  across the integration grid (initialize_grid_storage).
  | Net number of integration points:   389706
  | of which are non-zero points    :   309126
  Obtaining max. number of non-zero basis functions in each batch (get_n_compute_maxes).
  | Maximal number of non-zero basis functions:      620 in task     0
  | Maximal number of non-zero basis functions:      612 in task     1
  | Maximal number of non-zero basis functions:      613 in task     2
  | Maximal number of non-zero basis functions:      617 in task     3
  | Maximal number of non-zero basis functions:      611 in task     4
  | Maximal number of non-zero basis functions:      613 in task     5
  | Maximal number of non-zero basis functions:      613 in task     6
  | Maximal number of non-zero basis functions:      615 in task     7
  For each atomic center, finding distance to closest integration grid point.
  Integrating overlap matrix.
  Integrating Hamiltonian matrix: batch-based integration.

  Updating Kohn-Sham eigenvalues, eigenvectors, occupation numbers, and Fermi level.
  Solving generalized eigenproblem
  Updating Kohn-Sham eigenvalues and eigenfunctions.
  Transforming overlap matrix and checking for singularities.
  Overlap matrix is nonsingular:
  | Lowest eigenvalue:  0.987913E-04
  Solving real generalised eigenvalue problem by standard LAPACK (fast)
  Determining occupation numbers for Kohn-Sham eigenstates.
  | Chemical potential (Fermi level) in eV                 : -.69138860E+01
  | Error in electron count due to remaining E_F inaccuracy: 0.00000000E+00
  | Maximum occupation number of highest empty state:  0.00E+00

  Writing Kohn-Sham eigenvalues.

  State    Occupation    Eigenvalue [Ha]    Eigenvalue [eV]
      1       2.00000       -3362.548042       -91499.58767
      2       2.00000        -552.316270       -15029.29038
      3       2.00000        -475.222285       -12931.45633
      4       2.00000        -475.222284       -12931.45628
      5       2.00000        -475.222280       -12931.45619
      6       2.00000        -129.223122        -3516.34005
      7       2.00000        -107.457024        -2924.05439
      8       2.00000        -107.457009        -2924.05399
      9       2.00000        -107.456983        -2924.05329
     10       2.00000         -84.682035        -2304.31541
     11       2.00000         -84.682034        -2304.31539
     12       2.00000         -84.682019        -2304.31497
     13       2.00000         -84.682010        -2304.31474
     14       2.00000         -84.682007        -2304.31465
     15       2.00000         -28.286532         -769.71571
     16       2.00000         -21.201242         -576.91516
     17       2.00000         -21.201154         -576.91276
     18       2.00000         -21.201008         -576.90877
     19       2.00000         -18.997327         -516.94357
     20       2.00000         -18.994999         -516.88023
     21       2.00000         -14.278396         -388.53493
     22       2.00000         -14.270000         -388.30645
     23       2.00000         -12.821612         -348.89382
     24       2.00000         -12.821610         -348.89376
     25       2.00000         -12.821479         -348.89019
     26       2.00000         -12.821411         -348.88835
     27       2.00000         -12.821392         -348.88783
     28       2.00000         -10.180706         -277.03112
     29       2.00000         -10.179212         -276.99045
     30       2.00000         -10.174108         -276.85156
     31       2.00000         -10.153401         -276.28809
     32       2.00000         -10.142348         -275.98734
     33       2.00000         -10.140222         -275.92947
     34       2.00000          -4.341645         -118.14218
     35       2.00000          -3.535142          -96.19611
     36       2.00000          -3.535135          -96.19592
     37       2.00000          -3.534984          -96.19180
     38       2.00000          -3.534971          -96.19145
     39       2.00000          -3.534920          -96.19006
     40       2.00000          -3.534834          -96.18773
     41       2.00000          -3.534830          -96.18760
     42       2.00000          -2.445971          -66.55827
     43       2.00000          -2.444883          -66.52864
     44       2.00000          -2.443503          -66.49111
     45       2.00000          -1.112170          -30.26368
     46       2.00000          -1.107737          -30.14307
     47       2.00000          -1.018825          -27.72364
     48       2.00000          -1.012966          -27.56422
     49       2.00000          -0.890799          -24.23988
     50       2.00000          -0.846050          -23.02218
     51       2.00000          -0.824811          -22.44425
     52       2.00000          -0.762030          -20.73588
     53       2.00000          -0.698864          -19.01706
     54       2.00000          -0.690082          -18.77807
     55       2.00000          -0.639500          -17.40169
     56       2.00000          -0.620271          -16.87843
     57       2.00000          -0.606149          -16.49416
     58       2.00000          -0.593088          -16.13874
     59       2.00000          -0.562965          -15.31906
     60       2.00000          -0.559601          -15.22751
     61       2.00000          -0.551978          -15.02008
     62       2.00000          -0.543538          -14.79041
     63       2.00000          -0.540564          -14.70948
     64       2.00000          -0.529384          -14.40527
     65       2.00000          -0.517383          -14.07871
     66       2.00000          -0.516434          -14.05288
     67       2.00000          -0.498495          -13.56474
     68       2.00000          -0.480360          -13.07127
     69       2.00000          -0.471588          -12.83256
     70       2.00000          -0.442082          -12.02965
     71       2.00000          -0.439120          -11.94907
     72       2.00000          -0.400886          -10.90867
     73       2.00000          -0.395980          -10.77516
     74       2.00000          -0.366319           -9.96805
     75       2.00000          -0.361932           -9.84867
     76       2.00000          -0.356449           -9.69947
     77       2.00000          -0.348481           -9.48264
     78       2.00000          -0.321735           -8.75485
     79       0.00000          -0.193050           -5.25315
     80       0.00000          -0.170218           -4.63188
     81       0.00000          -0.163626           -4.45249
     82       0.00000          -0.080367           -2.18689
     83       0.00000          -0.064761           -1.76223
     84       0.00000          -0.058028           -1.57903
     85       0.00000          -0.046910           -1.27648
     86       0.00000          -0.041199           -1.12107
     87       0.00000          -0.035062           -0.95409
     88       0.00000          -0.027597           -0.75095
     89       0.00000          -0.021857           -0.59475
     90       0.00000          -0.013449           -0.36597
     91       0.00000          -0.008911           -0.24247
     92       0.00000          -0.004405           -0.11986
     93       0.00000           0.002950            0.08029
     94       0.00000           0.007678            0.20892
     95       0.00000           0.009084            0.24718
     96       0.00000           0.014780            0.40220
     97       0.00000           0.023432            0.63762
     98       0.00000           0.031505            0.85729
     99       0.00000           0.033575            0.91363
    100       0.00000           0.044515            1.21131
    101       0.00000           0.047758            1.29957
    102       0.00000           0.054568            1.48487
    103       0.00000           0.063224            1.72042
    104       0.00000           0.068217            1.85627
    105       0.00000           0.077576            2.11095
    106       0.00000           0.081603            2.22053
    107       0.00000           0.099435            2.70577
    108       0.00000           0.105111            2.86021
    109       0.00000           0.114655            3.11993
    110       0.00000           0.116413            3.16776
    111       0.00000           0.126260            3.43571
    112       0.00000           0.131724            3.58438
    113       0.00000           0.136648            3.71839
    114       0.00000           0.147974            4.02657
    115       0.00000           0.153322            4.17210
    116       0.00000           0.165750            4.51030
    117       0.00000           0.167824            4.56671
    118       0.00000           0.171892            4.67742
    119       0.00000           0.178747            4.86394
    120       0.00000           0.185385            5.04458
    121       0.00000           0.190837            5.19295
    122       0.00000           0.195524            5.32047
    123       0.00000           0.207809            5.65476
    124       0.00000           0.212657            5.78670
    125       0.00000           0.215163            5.85488
    126       0.00000           0.221503            6.02741
    127       0.00000           0.224072            6.09732
    128       0.00000           0.233054            6.34174
    129       0.00000           0.249694            6.79452
    130       0.00000           0.252303            6.86552
    131       0.00000           0.259920            7.07278
    132       0.00000           0.265602            7.22739
    133       0.00000           0.272295            7.40954
    134       0.00000           0.276407            7.52143
    135       0.00000           0.288939            7.86242
    136       0.00000           0.300207            8.16905

  Highest occupied state (VBM) at     -8.75484527 eV
  | Occupation number:      2.00000000

  Lowest unoccupied state (CBM) at    -5.25315067 eV
  | Occupation number:      0.00000000

  Calculating total energy contributions from superposition of free atom densities.

  Total energy components:
  | Sum of eigenvalues            :      -13112.18599051 Ha     -356800.73462323 eV
  | XC energy correction          :        -442.42086052 Ha      -12038.88414641 eV
  | XC potential correction       :         577.21895781 Ha       15706.92700155 eV
  | Free-atom electrostatic energy:       -7856.10867151 Ha     -213775.59373436 eV
  | Hartree energy correction     :           0.00000000 Ha           0.00000000 eV
  | van der Waals energy corr.    :           0.00000000 Ha           0.00000000 eV
  | Entropy correction            :           0.00000000 Ha           0.00000000 eV
  | ---------------------------
  | Total energy                  :      -20833.49656474 Ha     -566908.28550245 eV
  | Total energy, T -> 0          :      -20833.49656474 Ha     -566908.28550245 eV
  | Free energy                   :      -20833.49656474 Ha     -566908.28550245 eV

  Derived energy quantities:
  | Kinetic energy                :       23394.45802279 Ha      636595.59242717 eV
  | Electrostatic energy          :      -43785.53372700 Ha    -1191464.99378321 eV
  | Energy correction for multipole
  | error in Hartree potential    :           0.00000000 Ha           0.00000000 eV
  | Sum of eigenvalues per atom                       :      -15513.07541840 eV
  | Total energy (T->0) per atom                      :      -24648.18632619 eV
  | Free energy per atom                              :      -24648.18632619 eV

  End scf initialization - timings             :  max(cpu_time)    wall_clock(cpu1)
  | Time for scf. initialization               :        4.160 s           4.161 s
  | Integration                                :        2.744 s           2.742 s
  | Solution of K.-S. eqns.                    :        0.572 s           0.575 s
  | Grid partitioning                          :        0.260 s           0.261 s
  | Preloading free-atom quantities on grid    :        0.500 s           0.497 s
  | Free-atom superposition energy             :        0.088 s           0.086 s
  | Total energy evaluation                    :        0.000 s           0.000 s
------------------------------------------------------------

------------------------------------------------------------
          Begin self-consistency iteration #    1

  Date     :  20161129, Time     :  145312.365
------------------------------------------------------------
  Evaluating new KS density.
  Pulay mixing of updated and previous charge densities.

  Evaluating partitioned Hartree potential by multipole expansion.
  | Analytical far-field extrapolation by fixed multipoles:
  | Hartree multipole sum: apparent total charge =   0.999955E+00
  Summing up the Hartree potential.
  | RMS charge density error from multipole expansion :   0.843933E-02

  Integrating Hamiltonian matrix: batch-based integration.

  Updating Kohn-Sham eigenvalues, eigenvectors, occupation numbers, and Fermi level.
  Solving generalized eigenproblem
  Updating Kohn-Sham eigenvalues and eigenfunctions.
  Solving real generalised eigenvalue problem by standard LAPACK (fast)
  Determining occupation numbers for Kohn-Sham eigenstates.
  | Chemical potential (Fermi level) in eV                 : -.10797082E+02
  | Error in electron count due to remaining E_F inaccuracy: 0.00000000E+00
  | Maximum occupation number of highest empty state:  0.00E+00

  Writing Kohn-Sham eigenvalues.

  State    Occupation    Eigenvalue [Ha]    Eigenvalue [eV]
      1       2.00000       -3362.908355       -91509.39228
      2       2.00000        -552.672920       -15038.99532
      3       2.00000        -475.579610       -12941.17964
      4       2.00000        -475.579223       -12941.16909
      5       2.00000        -475.578963       -12941.16203
      6       2.00000        -129.574394        -3525.89865
      7       2.00000        -107.809442        -2933.64418
      8       2.00000        -107.808237        -2933.61139
      9       2.00000        -107.806985        -2933.57732
     10       2.00000         -85.034894        -2313.91718
     11       2.00000         -85.034763        -2313.91363
     12       2.00000         -85.033912        -2313.89046
     13       2.00000         -85.033110        -2313.86864
     14       2.00000         -85.033056        -2313.86719
     15       2.00000         -28.629490         -779.04807
     16       2.00000         -21.544906         -586.26673
     17       2.00000         -21.543049         -586.21619
     18       2.00000         -21.541518         -586.17454
     19       2.00000         -18.907784         -514.50698
     20       2.00000         -18.905330         -514.44021
     21       2.00000         -14.202210         -386.46180
     22       2.00000         -14.165023         -385.44988
     23       2.00000         -13.164080         -358.21283
     24       2.00000         -13.163807         -358.20542
     25       2.00000         -13.162666         -358.17437
     26       2.00000         -13.161468         -358.14177
     27       2.00000         -13.161331         -358.13804
     28       2.00000         -10.256192         -279.08517
     29       2.00000         -10.249280         -278.89709
     30       2.00000         -10.170863         -276.76327
     31       2.00000         -10.015316         -272.53060
     32       2.00000          -9.993797         -271.94504
     33       2.00000          -9.985262         -271.71279
     34       2.00000          -4.666145         -126.97228
     35       2.00000          -3.876187         -105.47642
     36       2.00000          -3.876139         -105.47510
     37       2.00000          -3.875197         -105.44949
     38       2.00000          -3.874695         -105.43583
     39       2.00000          -3.874626         -105.43394
     40       2.00000          -3.873511         -105.40359
     41       2.00000          -3.873495         -105.40316
     42       2.00000          -2.764432          -75.22401
     43       2.00000          -2.763378          -75.19535
     44       2.00000          -2.762703          -75.17697
     45       2.00000          -1.161193          -31.59766
     46       2.00000          -1.154094          -31.40450
     47       2.00000          -1.058940          -28.81523
     48       2.00000          -1.031887          -28.07907
     49       2.00000          -0.917310          -24.96129
     50       2.00000          -0.837199          -22.78134
     51       2.00000          -0.812987          -22.12250
     52       2.00000          -0.781403          -21.26306
     53       2.00000          -0.745930          -20.29779
     54       2.00000          -0.728909          -19.83464
     55       2.00000          -0.700488          -19.06125
     56       2.00000          -0.686704          -18.68618
     57       2.00000          -0.675012          -18.36802
     58       2.00000          -0.672081          -18.28825
     59       2.00000          -0.667131          -18.15356
     60       2.00000          -0.664563          -18.08369
     61       2.00000          -0.640251          -17.42211
     62       2.00000          -0.624714          -16.99932
     63       2.00000          -0.606908          -16.51481
     64       2.00000          -0.587529          -15.98747
     65       2.00000          -0.577142          -15.70483
     66       2.00000          -0.555044          -15.10352
     67       2.00000          -0.553093          -15.05042
     68       2.00000          -0.546982          -14.88414
     69       2.00000          -0.530209          -14.42771
     70       2.00000          -0.519676          -14.14110
     71       2.00000          -0.516066          -14.04287
     72       2.00000          -0.510453          -13.89014
     73       2.00000          -0.502121          -13.66341
     74       2.00000          -0.493721          -13.43483
     75       2.00000          -0.486384          -13.23518
     76       2.00000          -0.440769          -11.99393
     77       2.00000          -0.426726          -11.61179
     78       2.00000          -0.411204          -11.18943
     79       0.00000          -0.371779          -10.11662
     80       0.00000          -0.245451           -6.67907
     81       0.00000          -0.240081           -6.53294
     82       0.00000          -0.211218           -5.74754
     83       0.00000          -0.174911           -4.75958
     84       0.00000          -0.153088           -4.16575
     85       0.00000          -0.146286           -3.98063
     86       0.00000          -0.137193           -3.73322
     87       0.00000          -0.118542           -3.22570
     88       0.00000          -0.105773           -2.87824
     89       0.00000          -0.102459           -2.78804
     90       0.00000          -0.090576           -2.46470
     91       0.00000          -0.085671           -2.33122
     92       0.00000          -0.079945           -2.17541
     93       0.00000          -0.071358           -1.94175
     94       0.00000          -0.061179           -1.66477
     95       0.00000          -0.059558           -1.62064
     96       0.00000          -0.057433           -1.56283
     97       0.00000          -0.048049           -1.30749
     98       0.00000          -0.041637           -1.13300
     99       0.00000          -0.035575           -0.96805
    100       0.00000          -0.032115           -0.87388
    101       0.00000          -0.029622           -0.80605
    102       0.00000          -0.015543           -0.42293
    103       0.00000          -0.006627           -0.18032
    104       0.00000          -0.001854           -0.05046
    105       0.00000           0.004527            0.12318
    106       0.00000           0.007037            0.19150
    107       0.00000           0.016196            0.44072
    108       0.00000           0.024220            0.65907
    109       0.00000           0.031329            0.85249
    110       0.00000           0.034075            0.92722
    111       0.00000           0.043737            1.19014
    112       0.00000           0.046756            1.27231
    113       0.00000           0.058724            1.59796
    114       0.00000           0.071956            1.95803
    115       0.00000           0.078755            2.14305
    116       0.00000           0.082661            2.24931
    117       0.00000           0.091313            2.48475
    118       0.00000           0.096071            2.61423
    119       0.00000           0.098018            2.66722
    120       0.00000           0.107483            2.92476
    121       0.00000           0.111873            3.04423
    122       0.00000           0.118386            3.22145
    123       0.00000           0.122927            3.34501
    124       0.00000           0.128098            3.48572
    125       0.00000           0.134472            3.65918
    126       0.00000           0.142550            3.87897
    127       0.00000           0.144592            3.93455
    128       0.00000           0.151004            4.10904
    129       0.00000           0.153281            4.17098
    130       0.00000           0.164121            4.46597
    131       0.00000           0.172160            4.68470
    132       0.00000           0.177107            4.81932
    133       0.00000           0.190210            5.17589
    134       0.00000           0.194093            5.28155
    135       0.00000           0.198211            5.39360
    136       0.00000           0.205022            5.57892

  Highest occupied state (VBM) at    -11.18942701 eV
  | Occupation number:      2.00000000

  Lowest unoccupied state (CBM) at   -10.11662124 eV
  | Occupation number:      0.00000000


  Total energy components:
  | Sum of eigenvalues            :      -13138.63313349 Ha     -357520.39799986 eV
  | XC energy correction          :        -443.19662858 Ha      -12059.99386943 eV
  | XC potential correction       :         578.21275691 Ha       15733.96965116 eV
  | Free-atom electrostatic energy:       -7856.10867151 Ha     -213775.59373436 eV
  | Hartree energy correction     :          26.74992884 Ha         727.90259898 eV
  | van der Waals energy corr.    :           0.00000000 Ha           0.00000000 eV
  | Entropy correction            :          -0.00000000 Ha          -0.00000000 eV
  | ---------------------------
  | Total energy                  :      -20832.97574783 Ha     -566894.11335351 eV
  | Total energy, T -> 0          :      -20832.97574783 Ha     -566894.11335351 eV
  | Free energy                   :      -20832.97574783 Ha     -566894.11335351 eV

  Derived energy quantities:
  | Kinetic energy                :       23397.23344315 Ha      636671.11545776 eV
  | Electrostatic energy          :      -43787.01256240 Ha    -1191505.23494185 eV
  | Energy correction for multipole
  | error in Hartree potential    :          -0.02427505 Ha          -0.66055760 eV
  | Sum of eigenvalues per atom                       :      -15544.36513043 eV
  | Total energy (T->0) per atom                      :      -24647.57014580 eV
  | Free energy per atom                              :      -24647.57014580 eV

  Self-consistency convergence accuracy:
  | Change of charge density      : 0.7282E+00
  | Change of sum of eigenvalues  : -.7197E+03 eV
  | Change of total energy        : 0.1417E+02 eV

  End self-consistency iteration #     1       :  max(cpu_time)    wall_clock(cpu1)
  | Time for this iteration                    :        3.948 s           3.949 s
  | Charge density update                      :        1.352 s           1.353 s
  | Density mixing                             :        0.004 s           0.003 s
  | Hartree multipole update                   :        0.024 s           0.021 s
  | Hartree multipole summation                :        0.668 s           0.665 s
  | Integration                                :        1.792 s           1.788 s
  | Solution of K.-S. eqns.                    :        0.120 s           0.117 s
  | Total energy evaluation                    :        0.000 s           0.000 s
------------------------------------------------------------

------------------------------------------------------------
          Begin self-consistency iteration #    2

  Date     :  20161129, Time     :  145316.314
------------------------------------------------------------
  Evaluating new KS density.
  Pulay mixing of updated and previous charge densities.

  Evaluating partitioned Hartree potential by multipole expansion.
  | Analytical far-field extrapolation by fixed multipoles:
  | Hartree multipole sum: apparent total charge =   0.138399E+01
  Summing up the Hartree potential.
  | RMS charge density error from multipole expansion :   0.109193E-01

  Integrating Hamiltonian matrix: batch-based integration.

  Updating Kohn-Sham eigenvalues, eigenvectors, occupation numbers, and Fermi level.
  Solving generalized eigenproblem
  Updating Kohn-Sham eigenvalues and eigenfunctions.
  Solving real generalised eigenvalue problem by standard LAPACK (fast)
  Determining occupation numbers for Kohn-Sham eigenstates.
  | Chemical potential (Fermi level) in eV                 : -.13244058E+02
  | Error in electron count due to remaining E_F inaccuracy: 0.00000000E+00
  | Maximum occupation number of highest empty state:  0.00E+00

  Highest occupied state (VBM) at    -13.51729573 eV
  | Occupation number:      2.00000000

  Lowest unoccupied state (CBM) at   -11.49936602 eV
  | Occupation number:      0.00000000


  Total energy components:
  | Sum of eigenvalues            :      -13141.07266142 Ha     -357586.78093246 eV
  | XC energy correction          :        -443.11235384 Ha      -12057.70063694 eV
  | XC potential correction       :         578.09962401 Ha       15730.89114818 eV
  | Free-atom electrostatic energy:       -7856.10867151 Ha     -213775.59373436 eV
  | Hartree energy correction     :          29.30278021 Ha         797.36921919 eV
  | van der Waals energy corr.    :           0.00000000 Ha           0.00000000 eV
  | Entropy correction            :          -0.00000000 Ha          -0.00000000 eV
  | ---------------------------
  | Total energy                  :      -20832.89128256 Ha     -566891.81493639 eV
  | Total energy, T -> 0          :      -20832.89128256 Ha     -566891.81493639 eV
  | Free energy                   :      -20832.89128256 Ha     -566891.81493639 eV

  Derived energy quantities:
  | Kinetic energy                :       23397.46024480 Ha      636677.28704480 eV
  | Electrostatic energy          :      -43787.23917353 Ha    -1191511.40134425 eV
  | Energy correction for multipole
  | error in Hartree potential    :          -0.02991701 Ha          -0.81408315 eV
  | Sum of eigenvalues per atom                       :      -15547.25134489 eV
  | Total energy (T->0) per atom                      :      -24647.47021463 eV
  | Free energy per atom                              :      -24647.47021463 eV

  Self-consistency convergence accuracy:
  | Change of charge density      : 0.4068E+00
  | Change of sum of eigenvalues  : -.6638E+02 eV
  | Change of total energy        : 0.2298E+01 eV

  End self-consistency iteration #     2       :  max(cpu_time)    wall_clock(cpu1)
  | Time for this iteration                    :        3.940 s           3.940 s
  | Charge density update                      :        1.348 s           1.349 s
  | Density mixing                             :        0.008 s           0.006 s
  | Hartree multipole update                   :        0.020 s           0.017 s
  | Hartree multipole summation                :        0.668 s           0.666 s
  | Integration                                :        1.788 s           1.784 s
  | Solution of K.-S. eqns.                    :        0.116 s           0.117 s
  | Total energy evaluation                    :        0.000 s           0.000 s
------------------------------------------------------------

------------------------------------------------------------
          Begin self-consistency iteration #    3

  Date     :  20161129, Time     :  145320.254
------------------------------------------------------------
  Evaluating new KS density.
  Pulay mixing of updated and previous charge densities.

  Evaluating partitioned Hartree potential by multipole expansion.
  | Analytical far-field extrapolation by fixed multipoles:
  | Hartree multipole sum: apparent total charge =   0.180183E+01
  Summing up the Hartree potential.
  | RMS charge density error from multipole expansion :   0.138604E-01

  Integrating Hamiltonian matrix: batch-based integration.

  Updating Kohn-Sham eigenvalues, eigenvectors, occupation numbers, and Fermi level.
  Solving generalized eigenproblem
  Updating Kohn-Sham eigenvalues and eigenfunctions.
  Solving real generalised eigenvalue problem by standard LAPACK (fast)
  Determining occupation numbers for Kohn-Sham eigenstates.
  | Chemical potential (Fermi level) in eV                 : -.14344545E+02
  | Error in electron count due to remaining E_F inaccuracy: -.22907898E-10
  | Maximum occupation number of highest empty state:  0.00E+00

  Highest occupied state (VBM) at    -14.58093420 eV
  | Occupation number:      2.00000000

  Lowest unoccupied state (CBM) at   -12.81613552 eV
  | Occupation number:      0.00000000


  Total energy components:
  | Sum of eigenvalues            :      -13149.86967049 Ha     -357826.15972849 eV
  | XC energy correction          :        -443.23054212 Ha      -12060.91670370 eV
  | XC potential correction       :         578.24814008 Ha       15734.93247614 eV
  | Free-atom electrostatic energy:       -7856.10867151 Ha     -213775.59373436 eV
  | Hartree energy correction     :          38.09511647 Ha        1036.62086182 eV
  | van der Waals energy corr.    :           0.00000000 Ha           0.00000000 eV
  | Entropy correction            :          -0.00000000 Ha          -0.00000000 eV
  | ---------------------------
  | Total energy                  :      -20832.86562757 Ha     -566891.11682859 eV
  | Total energy, T -> 0          :      -20832.86562757 Ha     -566891.11682859 eV
  | Free energy                   :      -20832.86562757 Ha     -566891.11682859 eV

  Derived energy quantities:
  | Kinetic energy                :       23397.10057171 Ha      636667.49984199 eV
  | Electrostatic energy          :      -43786.73565716 Ha    -1191497.69996688 eV
  | Energy correction for multipole
  | error in Hartree potential    :          -0.03649597 Ha          -0.99310601 eV
  | Sum of eigenvalues per atom                       :      -15557.65911863 eV
  | Total energy (T->0) per atom                      :      -24647.43986211 eV
  | Free energy per atom                              :      -24647.43986211 eV

  Self-consistency convergence accuracy:
  | Change of charge density      : 0.1904E+00
  | Change of sum of eigenvalues  : -.2394E+03 eV
  | Change of total energy        : 0.6981E+00 eV

  End self-consistency iteration #     3       :  max(cpu_time)    wall_clock(cpu1)
  | Time for this iteration                    :        3.952 s           3.950 s
  | Charge density update                      :        1.348 s           1.347 s
  | Density mixing                             :        0.012 s           0.009 s
  | Hartree multipole update                   :        0.016 s           0.016 s
  | Hartree multipole summation                :        0.668 s           0.666 s
  | Integration                                :        1.796 s           1.795 s
  | Solution of K.-S. eqns.                    :        0.120 s           0.117 s
  | Total energy evaluation                    :        0.000 s           0.000 s
------------------------------------------------------------

------------------------------------------------------------
          Begin self-consistency iteration #    4

  Date     :  20161129, Time     :  145324.204
------------------------------------------------------------
  Evaluating new KS density.
  Pulay mixing of updated and previous charge densities.

  Evaluating partitioned Hartree potential by multipole expansion.
  | Analytical far-field extrapolation by fixed multipoles:
  | Hartree multipole sum: apparent total charge =   0.193416E+01
  Summing up the Hartree potential.
  | RMS charge density error from multipole expansion :   0.147147E-01

  Integrating Hamiltonian matrix: batch-based integration.

  Updating Kohn-Sham eigenvalues, eigenvectors, occupation numbers, and Fermi level.
  Solving generalized eigenproblem
  Updating Kohn-Sham eigenvalues and eigenfunctions.
  Solving real generalised eigenvalue problem by standard LAPACK (fast)
  Determining occupation numbers for Kohn-Sham eigenstates.
  | Chemical potential (Fermi level) in eV                 : -.13975892E+02
  | Error in electron count due to remaining E_F inaccuracy: 0.00000000E+00
  | Maximum occupation number of highest empty state:  0.00E+00

  Highest occupied state (VBM) at    -14.83231956 eV
  | Occupation number:      2.00000000

  Lowest unoccupied state (CBM) at   -13.43127314 eV
  | Occupation number:      0.00000000


  Total energy components:
  | Sum of eigenvalues            :      -13152.39962821 Ha     -357895.00338082 eV
  | XC energy correction          :        -443.23064040 Ha      -12060.91937798 eV
  | XC potential correction       :         578.24738033 Ha       15734.91180226 eV
  | Free-atom electrostatic energy:       -7856.10867151 Ha     -213775.59373436 eV
  | Hartree energy correction     :          40.63304294 Ha        1105.68135492 eV
  | van der Waals energy corr.    :           0.00000000 Ha           0.00000000 eV
  | Entropy correction            :          -0.00000000 Ha          -0.00000000 eV
  | ---------------------------
  | Total energy                  :      -20832.85851685 Ha     -566890.92333598 eV
  | Total energy, T -> 0          :      -20832.85851685 Ha     -566890.92333598 eV
  | Free energy                   :      -20832.85851685 Ha     -566890.92333598 eV

  Derived energy quantities:
  | Kinetic energy                :       23396.78697310 Ha      636658.96638949 eV
  | Electrostatic energy          :      -43786.41484955 Ha    -1191488.97034750 eV
  | Energy correction for multipole
  | error in Hartree potential    :          -0.03880408 Ha          -1.05591274 eV
  | Sum of eigenvalues per atom                       :      -15560.65232091 eV
  | Total energy (T->0) per atom                      :      -24647.43144939 eV
  | Free energy per atom                              :      -24647.43144939 eV

  Self-consistency convergence accuracy:
  | Change of charge density      : 0.1293E+00
  | Change of sum of eigenvalues  : -.6884E+02 eV
  | Change of total energy        : 0.1935E+00 eV

  End self-consistency iteration #     4       :  max(cpu_time)    wall_clock(cpu1)
  | Time for this iteration                    :        3.940 s           3.941 s
  | Charge density update                      :        1.348 s           1.348 s
  | Density mixing                             :        0.012 s           0.011 s
  | Hartree multipole update                   :        0.020 s           0.017 s
  | Hartree multipole summation                :        0.668 s           0.666 s
  | Integration                                :        1.784 s           1.782 s
  | Solution of K.-S. eqns.                    :        0.120 s           0.117 s
  | Total energy evaluation                    :        0.000 s           0.000 s
------------------------------------------------------------

------------------------------------------------------------
          Begin self-consistency iteration #    5

  Date     :  20161129, Time     :  145328.146
------------------------------------------------------------
  Evaluating new KS density.
  Pulay mixing of updated and previous charge densities.

  Evaluating partitioned Hartree potential by multipole expansion.
  | Analytical far-field extrapolation by fixed multipoles:
  | Hartree multipole sum: apparent total charge =   0.196117E+01
  Summing up the Hartree potential.
  | RMS charge density error from multipole expansion :   0.148509E-01

  Integrating Hamiltonian matrix: batch-based integration.

  Updating Kohn-Sham eigenvalues, eigenvectors, occupation numbers, and Fermi level.
  Solving generalized eigenproblem
  Updating Kohn-Sham eigenvalues and eigenfunctions.
  Solving real generalised eigenvalue problem by standard LAPACK (fast)
  Determining occupation numbers for Kohn-Sham eigenstates.
  | Chemical potential (Fermi level) in eV                 : -.14055618E+02
  | Error in electron count due to remaining E_F inaccuracy: 0.00000000E+00
  | Maximum occupation number of highest empty state:  0.00E+00

  Highest occupied state (VBM) at    -15.09984425 eV
  | Occupation number:      2.00000000

  Lowest unoccupied state (CBM) at   -13.50907393 eV
  | Occupation number:      0.00000000


  Total energy components:
  | Sum of eigenvalues            :      -13152.79090618 Ha     -357905.65059619 eV
  | XC energy correction          :        -443.22253212 Ha      -12060.69874050 eV
  | XC potential correction       :         578.23684535 Ha       15734.62513100 eV
  | Free-atom electrostatic energy:       -7856.10867151 Ha     -213775.59373436 eV
  | Hartree energy correction     :          41.02870778 Ha        1116.44794295 eV
  | van der Waals energy corr.    :           0.00000000 Ha           0.00000000 eV
  | Entropy correction            :          -0.00000000 Ha          -0.00000000 eV
  | ---------------------------
  | Total energy                  :      -20832.85655668 Ha     -566890.86999710 eV
  | Total energy, T -> 0          :      -20832.85655668 Ha     -566890.86999710 eV
  | Free energy                   :      -20832.85655668 Ha     -566890.86999710 eV

  Derived energy quantities:
  | Kinetic energy                :       23396.68766629 Ha      636656.26411383 eV
  | Electrostatic energy          :      -43786.32169085 Ha    -1191486.43537043 eV
  | Energy correction for multipole
  | error in Hartree potential    :          -0.03916883 Ha          -1.06583821 eV
  | Sum of eigenvalues per atom                       :      -15561.11524331 eV
  | Total energy (T->0) per atom                      :      -24647.42913031 eV
  | Free energy per atom                              :      -24647.42913031 eV

  Self-consistency convergence accuracy:
  | Change of charge density      : 0.6814E-01
  | Change of sum of eigenvalues  : -.1065E+02 eV
  | Change of total energy        : 0.5334E-01 eV

  End self-consistency iteration #     5       :  max(cpu_time)    wall_clock(cpu1)
  | Time for this iteration                    :        3.948 s           3.945 s
  | Charge density update                      :        1.352 s           1.348 s
  | Density mixing                             :        0.012 s           0.012 s
  | Hartree multipole update                   :        0.020 s           0.019 s
  | Hartree multipole summation                :        0.668 s           0.665 s
  | Integration                                :        1.784 s           1.784 s
  | Solution of K.-S. eqns.                    :        0.116 s           0.117 s
  | Total energy evaluation                    :        0.000 s           0.000 s
------------------------------------------------------------

------------------------------------------------------------
          Begin self-consistency iteration #    6

  Date     :  20161129, Time     :  145332.091
------------------------------------------------------------
  Evaluating new KS density.
  Pulay mixing of updated and previous charge densities.

  Evaluating partitioned Hartree potential by multipole expansion.
  | Analytical far-field extrapolation by fixed multipoles:
  | Hartree multipole sum: apparent total charge =   0.198001E+01
  Summing up the Hartree potential.
  | RMS charge density error from multipole expansion :   0.149315E-01

  Integrating Hamiltonian matrix: batch-based integration.

  Updating Kohn-Sham eigenvalues, eigenvectors, occupation numbers, and Fermi level.
  Solving generalized eigenproblem
  Updating Kohn-Sham eigenvalues and eigenfunctions.
  Solving real generalised eigenvalue problem by standard LAPACK (fast)
  Determining occupation numbers for Kohn-Sham eigenstates.
  | Chemical potential (Fermi level) in eV                 : -.14111355E+02
  | Error in electron count due to remaining E_F inaccuracy: 0.00000000E+00
  | Maximum occupation number of highest empty state:  0.00E+00

  Highest occupied state (VBM) at    -15.16441983 eV
  | Occupation number:      2.00000000

  Lowest unoccupied state (CBM) at   -13.51856071 eV
  | Occupation number:      0.00000000


  Total energy components:
  | Sum of eigenvalues            :      -13153.02903560 Ha     -357912.13042734 eV
  | XC energy correction          :        -443.21721130 Ha      -12060.55395365 eV
  | XC potential correction       :         578.22999043 Ha       15734.43859910 eV
  | Free-atom electrostatic energy:       -7856.10867151 Ha     -213775.59373436 eV
  | Hartree energy correction     :          41.26853378 Ha        1122.97394044 eV
  | van der Waals energy corr.    :           0.00000000 Ha           0.00000000 eV
  | Entropy correction            :          -0.00000000 Ha          -0.00000000 eV
  | ---------------------------
  | Total energy                  :      -20832.85639420 Ha     -566890.86557581 eV
  | Total energy, T -> 0          :      -20832.85639420 Ha     -566890.86557581 eV
  | Free energy                   :      -20832.85639420 Ha     -566890.86557581 eV

  Derived energy quantities:
  | Kinetic energy                :       23396.60879713 Ha      636654.11797475 eV
  | Electrostatic energy          :      -43786.24798003 Ha    -1191484.42959690 eV
  | Energy correction for multipole
  | error in Hartree potential    :          -0.03932641 Ha          -1.07012616 eV
  | Sum of eigenvalues per atom                       :      -15561.39697510 eV
  | Total energy (T->0) per atom                      :      -24647.42893808 eV
  | Free energy per atom                              :      -24647.42893808 eV

  Self-consistency convergence accuracy:
  | Change of charge density      : 0.1738E-01
  | Change of sum of eigenvalues  : -.6480E+01 eV
  | Change of total energy        : 0.4421E-02 eV

  End self-consistency iteration #     6       :  max(cpu_time)    wall_clock(cpu1)
  | Time for this iteration                    :        3.948 s           3.946 s
  | Charge density update                      :        1.352 s           1.351 s
  | Density mixing                             :        0.016 s           0.013 s
  | Hartree multipole update                   :        0.016 s           0.016 s
  | Hartree multipole summation                :        0.668 s           0.665 s
  | Integration                                :        1.784 s           1.783 s
  | Solution of K.-S. eqns.                    :        0.116 s           0.117 s
  | Total energy evaluation                    :        0.004 s           0.000 s
------------------------------------------------------------

------------------------------------------------------------
          Begin self-consistency iteration #    7

  Date     :  20161129, Time     :  145336.037
------------------------------------------------------------
  Evaluating new KS density.
  Pulay mixing of updated and previous charge densities.

  Evaluating partitioned Hartree potential by multipole expansion.
  | Analytical far-field extrapolation by fixed multipoles:
  | Hartree multipole sum: apparent total charge =   0.199367E+01
  Summing up the Hartree potential.
  | RMS charge density error from multipole expansion :   0.149971E-01

  Integrating Hamiltonian matrix: batch-based integration.

  Updating Kohn-Sham eigenvalues, eigenvectors, occupation numbers, and Fermi level.
  Solving generalized eigenproblem
  Updating Kohn-Sham eigenvalues and eigenfunctions.
  Solving real generalised eigenvalue problem by standard LAPACK (fast)
  Determining occupation numbers for Kohn-Sham eigenstates.
  | Chemical potential (Fermi level) in eV                 : -.14148906E+02
  | Error in electron count due to remaining E_F inaccuracy: 0.00000000E+00
  | Maximum occupation number of highest empty state:  0.00E+00

  Highest occupied state (VBM) at    -15.19740909 eV
  | Occupation number:      2.00000000

  Lowest unoccupied state (CBM) at   -13.56839054 eV
  | Occupation number:      0.00000000


  Total energy components:
  | Sum of eigenvalues            :      -13153.33067247 Ha     -357920.33838433 eV
  | XC energy correction          :        -443.21361628 Ha      -12060.45612816 eV
  | XC potential correction       :         578.22533339 Ha       15734.31187444 eV
  | Free-atom electrostatic energy:       -7856.10867151 Ha     -213775.59373436 eV
  | Hartree energy correction     :          41.57127434 Ha        1131.21193025 eV
  | van der Waals energy corr.    :           0.00000000 Ha           0.00000000 eV
  | Entropy correction            :          -0.00000000 Ha          -0.00000000 eV
  | ---------------------------
  | Total energy                  :      -20832.85635254 Ha     -566890.86444216 eV
  | Total energy, T -> 0          :      -20832.85635254 Ha     -566890.86444216 eV
  | Free energy                   :      -20832.85635254 Ha     -566890.86444216 eV

  Derived energy quantities:
  | Kinetic energy                :       23396.55031536 Ha      636652.52660490 eV
  | Electrostatic energy          :      -43786.19305162 Ha    -1191482.93491891 eV
  | Energy correction for multipole
  | error in Hartree potential    :          -0.03947389 Ha          -1.07413926 eV
  | Sum of eigenvalues per atom                       :      -15561.75384280 eV
  | Total energy (T->0) per atom                      :      -24647.42888879 eV
  | Free energy per atom                              :      -24647.42888879 eV

  Self-consistency convergence accuracy:
  | Change of charge density      : 0.7985E-02
  | Change of sum of eigenvalues  : -.8208E+01 eV
  | Change of total energy        : 0.1134E-02 eV

  End self-consistency iteration #     7       :  max(cpu_time)    wall_clock(cpu1)
  | Time for this iteration                    :        3.948 s           3.948 s
  | Charge density update                      :        1.348 s           1.348 s
  | Density mixing                             :        0.016 s           0.015 s
  | Hartree multipole update                   :        0.016 s           0.015 s
  | Hartree multipole summation                :        0.668 s           0.666 s
  | Integration                                :        1.788 s           1.786 s
  | Solution of K.-S. eqns.                    :        0.120 s           0.118 s
  | Total energy evaluation                    :        0.000 s           0.000 s
------------------------------------------------------------

------------------------------------------------------------
          Begin self-consistency iteration #    8

  Date     :  20161129, Time     :  145339.985
------------------------------------------------------------
  Evaluating new KS density.
  Pulay mixing of updated and previous charge densities.

  Evaluating partitioned Hartree potential by multipole expansion.
  | Analytical far-field extrapolation by fixed multipoles:
  | Hartree multipole sum: apparent total charge =   0.199796E+01
  Summing up the Hartree potential.
  | RMS charge density error from multipole expansion :   0.150187E-01

  Integrating Hamiltonian matrix: batch-based integration.

  Updating Kohn-Sham eigenvalues, eigenvectors, occupation numbers, and Fermi level.
  Solving generalized eigenproblem
  Updating Kohn-Sham eigenvalues and eigenfunctions.
  Solving real generalised eigenvalue problem by standard LAPACK (fast)
  Determining occupation numbers for Kohn-Sham eigenstates.
  | Chemical potential (Fermi level) in eV                 : -.14160461E+02
  | Error in electron count due to remaining E_F inaccuracy: 0.00000000E+00
  | Maximum occupation number of highest empty state:  0.00E+00

  Highest occupied state (VBM) at    -15.21290912 eV
  | Occupation number:      2.00000000

  Lowest unoccupied state (CBM) at   -13.58370685 eV
  | Occupation number:      0.00000000


  Total energy components:
[...]
  ----------------------------------------------------------------------
  | Atom    17: N
  |   Hirshfeld charge        :     -0.00320446
  |   Free atom volume        :     29.90025370
  |   Hirshfeld volume        :     23.81631211
  |   Hirshfeld dipole vector :     -0.03429554       0.02571371      -0.01261365
  |   Hirshfeld dipole moment :      0.04468202
  |   Hirshfeld second moments:      0.15051790       0.01874114      -0.00037009
  |                                  0.01874114       0.12087036       0.04174773
  |                                 -0.00037009       0.04174773       0.17813356
  ----------------------------------------------------------------------
  | Atom    18: C
  |   Hirshfeld charge        :     -0.01249522
  |   Free atom volume        :     38.37861207
  |   Hirshfeld volume        :     27.03551975
  |   Hirshfeld dipole vector :     -0.01773476      -0.00049606       0.00321270
  |   Hirshfeld dipole moment :      0.01803023
  |   Hirshfeld second moments:      0.22452682       0.01336700      -0.00162294
  |                                  0.01336700       0.25638373      -0.00881092
  |                                 -0.00162294      -0.00881092       0.24607227
  ----------------------------------------------------------------------
  | Atom    19: H
  |   Hirshfeld charge        :      0.17007019
  |   Free atom volume        :     10.31539447
  |   Hirshfeld volume        :      5.89655872
  |   Hirshfeld dipole vector :     -0.10839434      -0.01432188       0.02937806
  |   Hirshfeld dipole moment :      0.11321449
  |   Hirshfeld second moments:      0.13217515      -0.00782831       0.00668134
  |                                 -0.00782831       0.11011359       0.01619065
  |                                  0.00668134       0.01619065       0.13914761
  ----------------------------------------------------------------------
  | Atom    20: H
  |   Hirshfeld charge        :      0.09477623
  |   Free atom volume        :     10.31539447
  |   Hirshfeld volume        :      5.33798661
  |   Hirshfeld dipole vector :     -0.02804543      -0.00475720      -0.10182089
  |   Hirshfeld dipole moment :      0.10571977
  |   Hirshfeld second moments:      0.13615137       0.00272695      -0.00717126
  |                                  0.00272695       0.14258468      -0.00211963
  |                                 -0.00717126      -0.00211963       0.11637435
  ----------------------------------------------------------------------
  | Atom    21: H
  |   Hirshfeld charge        :      0.07934091
  |   Free atom volume        :     10.31539447
  |   Hirshfeld volume        :      5.83543226
  |   Hirshfeld dipole vector :      0.07139716       0.06966615      -0.00271656
  |   Hirshfeld dipole moment :      0.09979132
  |   Hirshfeld second moments:      0.10172229       0.00104668      -0.00120990
  |                                  0.00104668       0.11931622      -0.00069757
  |                                 -0.00120990      -0.00069757       0.13545728
  ----------------------------------------------------------------------
  | Atom    22: H
  |   Hirshfeld charge        :      0.09644948
  |   Free atom volume        :     10.31539447
  |   Hirshfeld volume        :      5.16598272
  |   Hirshfeld dipole vector :     -0.07455003       0.06677179       0.03573427
  |   Hirshfeld dipole moment :      0.10626908
  |   Hirshfeld second moments:      0.13036261       0.01410440       0.00572939
  |                                  0.01410440       0.13529575      -0.00739908
  |                                  0.00572939      -0.00739908       0.14087460
  ----------------------------------------------------------------------
  | Atom    23: Hg
  |   Hirshfeld charge        :      0.83998435
  |   Free atom volume        :    131.78862013
  |   Hirshfeld volume        :    101.96888945
  |   Hirshfeld dipole vector :      0.23656399       0.02766835      -0.11772602
  |   Hirshfeld dipole moment :      0.26568303
  |   Hirshfeld second moments:      0.76389396       0.04761986      -0.04441062
  |                                  0.04761986       0.79001738       0.09091548
  |                                 -0.04441062       0.09091548       0.72922313
  ----------------------------------------------------------------------


  Total energy components:
  | Sum of eigenvalues            :      -13153.45022342 Ha     -357923.59153117 eV
  | XC energy correction          :        -443.21334686 Ha      -12060.44879698 eV
  | XC potential correction       :         578.22500418 Ha       15734.30291635 eV
  | Free-atom electrostatic energy:       -7856.10867151 Ha     -213775.59373436 eV
  | Hartree energy correction     :          41.69088699 Ha        1134.46675592 eV
  | van der Waals energy corr.    :          -0.00955565 Ha          -0.26002240 eV
  | Entropy correction            :          -0.00000000 Ha          -0.00000000 eV
  | ---------------------------
  | Total energy                  :      -20832.86590628 Ha     -566891.12441265 eV
  | Total energy, T -> 0          :      -20832.86590628 Ha     -566891.12441265 eV
  | Free energy                   :      -20832.86590628 Ha     -566891.12441265 eV

  Derived energy quantities:
  | Kinetic energy                :       23396.54412977 Ha      636652.35828640 eV
  | Electrostatic energy          :      -43786.18713354 Ha    -1191482.77387967 eV
  | Energy correction for multipole
  | error in Hartree potential    :          -0.03953306 Ha          -1.07574929 eV
  | Sum of eigenvalues per atom                       :      -15561.89528396 eV
  | Total energy (T->0) per atom                      :      -24647.44019185 eV
  | Free energy per atom                              :      -24647.44019185 eV

  atomic forces [eV/Ang]:
  -----------------------
  atom #    1
   Hellmann-Feynman + Multipole : 0.284584E+00 -.261552E+00 0.161014E+01
   Pulay + GGA                 : -.284914E+00 0.259588E+00 -.159559E+01
   Van der Waals               : 0.235687E-03 0.204332E-02 -.143775E-01
   ----------------------------------------------------------------
   Total forces(   1)            : -.948177E-04 0.787844E-04 0.172538E-03
  atom #    2
   Hellmann-Feynman + Multipole : 0.167822E+00 -.321420E+00 0.135068E+01
   Pulay + GGA                 : -.153297E+00 0.320725E+00 -.135231E+01
   Van der Waals               : -.148292E-01 0.715289E-03 0.192325E-02
   ----------------------------------------------------------------
   Total forces(   2)            : -.303885E-03 0.205034E-04 0.290659E-03
  atom #    3
   Hellmann-Feynman + Multipole : 0.139013E+02 -.484813E+01 0.397633E+01
   Pulay + GGA                 : -.139043E+02 0.484150E+01 -.396809E+01
   Van der Waals               : 0.262020E-02 0.675358E-02 -.800267E-02
   ----------------------------------------------------------------
   Total forces(   3)            : -.346343E-03 0.121558E-03 0.237976E-03
  atom #    4
   Hellmann-Feynman + Multipole : -.440988E-01 -.460449E-01 -.785925E-02
   Pulay + GGA                 : 0.469824E-01 0.436282E-01 0.732637E-02
   Van der Waals               : -.391092E-02 0.204643E-02 0.367004E-03
   ----------------------------------------------------------------
   Total forces(   4)            : -.102726E-02 -.370253E-03 -.165876E-03
  atom #    5
   Hellmann-Feynman + Multipole : -.828622E-03 0.633949E-01 0.173063E-01
   Pulay + GGA                 : 0.602295E-02 -.626688E-01 -.164843E-01
   Van der Waals               : -.561015E-02 0.107869E-03 -.747390E-03
   ----------------------------------------------------------------
   Total forces(   5)            : -.415825E-03 0.833929E-03 0.745465E-04
  atom #    6
   Hellmann-Feynman + Multipole : 0.727134E-01 -.261436E-01 0.168216E-01
   Pulay + GGA                 : -.749267E-01 0.271896E-01 -.202763E-01
   Van der Waals               : 0.233313E-02 -.118474E-02 0.328361E-02
   ----------------------------------------------------------------
   Total forces(   6)            : 0.119841E-03 -.138687E-03 -.171048E-03
  atom #    7
   Hellmann-Feynman + Multipole : 0.358256E+00 0.146060E+01 0.111016E+01
   Pulay + GGA                 : -.349295E+00 -.146714E+01 -.112038E+01
   Van der Waals               : -.943921E-02 0.652170E-02 0.100134E-01
   ----------------------------------------------------------------
   Total forces(   7)            : -.478281E-03 -.140735E-04 -.211058E-03
  atom #    8
   Hellmann-Feynman + Multipole : -.768323E+00 -.105921E+01 -.170210E+01
   Pulay + GGA                 : 0.784266E+00 0.106078E+01 0.169798E+01
   Van der Waals               : -.160368E-01 -.127459E-02 0.408140E-02
   ----------------------------------------------------------------
   Total forces(   8)            : -.943629E-04 0.289940E-03 -.432023E-04
  atom #    9
   Hellmann-Feynman + Multipole : -.631210E+00 0.176026E+00 -.127342E+00
   Pulay + GGA                 : 0.627026E+00 -.177819E+00 0.121309E+00
   Van der Waals               : 0.387309E-02 0.166278E-02 0.611722E-02
   ----------------------------------------------------------------
   Total forces(   9)            : -.309994E-03 -.130394E-03 0.841677E-04
  atom #   10
   Hellmann-Feynman + Multipole : 0.441048E+01 0.100921E+02 -.105040E+02
   Pulay + GGA                 : -.441055E+01 -.100817E+02 0.104941E+02
   Van der Waals               : -.829010E-05 -.103633E-01 0.981961E-02
   ----------------------------------------------------------------
   Total forces(  10)            : -.804429E-04 0.154121E-04 -.316978E-04
  atom #   11
   Hellmann-Feynman + Multipole : 0.410806E-01 -.100869E-01 -.351768E-01
   Pulay + GGA                 : -.502138E-01 0.569463E-02 0.426730E-01
   Van der Waals               : 0.894372E-02 0.438327E-02 -.748909E-02
   ----------------------------------------------------------------
   Total forces(  11)            : -.189490E-03 -.903563E-05 0.718127E-05
  atom #   12
   Hellmann-Feynman + Multipole : -.755016E-01 -.725631E-04 0.284366E-01
   Pulay + GGA                 : 0.829531E-01 0.148140E-02 -.237690E-01
   Van der Waals               : -.762288E-02 -.142266E-02 -.463256E-02
   ----------------------------------------------------------------
   Total forces(  12)            : -.171347E-03 -.138210E-04 0.349907E-04
  atom #   13
   Hellmann-Feynman + Multipole : -.121178E+01 -.103749E+01 -.914634E-01
   Pulay + GGA                 : 0.119816E+01 0.104593E+01 0.886486E-01
   Van der Waals               : 0.134380E-01 -.846692E-02 0.263105E-02
   ----------------------------------------------------------------
   Total forces(  13)            : -.183570E-03 -.269245E-04 -.183753E-03
  atom #   14
   Hellmann-Feynman + Multipole : 0.448615E-02 -.203227E-01 0.596984E-01
   Pulay + GGA                 : -.136998E-04 0.251634E-01 -.598497E-01
   Van der Waals               : -.465930E-02 -.482390E-02 0.838167E-04
   ----------------------------------------------------------------
   Total forces(  14)            : -.186847E-03 0.168665E-04 -.675288E-04
  atom #   15
   Hellmann-Feynman + Multipole : 0.270269E-02 -.723002E-01 -.317507E-01
   Pulay + GGA                 : 0.738929E-02 0.783953E-01 0.324883E-01
   Van der Waals               : -.103535E-01 -.607985E-02 -.835037E-03
   ----------------------------------------------------------------
   Total forces(  15)            : -.261496E-03 0.153042E-04 -.974133E-04
  atom #   16
   Hellmann-Feynman + Multipole : -.285968E-01 0.428720E-01 -.382592E-01
   Pulay + GGA                 : 0.311147E-01 -.429804E-01 0.379371E-01
   Van der Waals               : -.273100E-02 0.105462E-03 0.259127E-03
   ----------------------------------------------------------------
   Total forces(  16)            : -.213112E-03 -.290659E-05 -.629819E-04
  atom #   17
   Hellmann-Feynman + Multipole : 0.251789E-01 -.107475E+00 0.574143E+00
   Pulay + GGA                 : -.414776E-01 0.109961E+00 -.578678E+00
   Van der Waals               : 0.161566E-01 -.269957E-02 0.470392E-02
   ----------------------------------------------------------------
   Total forces(  17)            : -.142041E-03 -.213908E-03 0.168899E-03
  atom #   18
   Hellmann-Feynman + Multipole : -.248770E+00 0.275340E+01 -.144681E+01
   Pulay + GGA                 : 0.249903E+00 -.274635E+01 0.144192E+01
   Van der Waals               : -.144602E-02 -.738607E-02 0.507126E-02
   ----------------------------------------------------------------
   Total forces(  18)            : -.312841E-03 -.338947E-03 0.185357E-03
  atom #   19
   Hellmann-Feynman + Multipole : 0.440279E-01 0.329776E-01 -.386850E-01
   Pulay + GGA                 : -.502779E-01 -.378304E-01 0.378292E-01
   Van der Waals               : 0.596907E-02 0.489021E-02 0.715412E-03
   ----------------------------------------------------------------
   Total forces(  19)            : -.280905E-03 0.373319E-04 -.140366E-03
  atom #   20
   Hellmann-Feynman + Multipole : 0.114807E-01 0.313780E-01 0.586697E-01
   Pulay + GGA                 : -.145428E-01 -.287278E-01 -.605604E-01
   Van der Waals               : 0.269495E-02 -.291402E-02 0.857514E-03
   ----------------------------------------------------------------
   Total forces(  20)            : -.367109E-03 -.263832E-03 -.103313E-02
  atom #   21
   Hellmann-Feynman + Multipole : -.628560E-01 -.176665E-01 -.178667E-01
   Pulay + GGA                 : 0.654942E-01 0.128441E-01 0.178853E-01
   Van der Waals               : -.191166E-02 0.519038E-02 0.930393E-04
   ----------------------------------------------------------------
   Total forces(  21)            : 0.726569E-03 0.368016E-03 0.111703E-03
  atom #   22
   Hellmann-Feynman + Multipole : 0.475549E-01 -.131395E-01 -.419042E-01
   Pulay + GGA                 : -.519902E-01 0.132257E-01 0.421452E-01
   Van der Waals               : 0.339813E-02 0.393146E-03 0.107840E-03
   ----------------------------------------------------------------
   Total forces(  22)            : -.103710E-02 0.479348E-03 0.348899E-03
  atom #   23
   Hellmann-Feynman + Multipole : -.144809E+03 -.390202E+01 0.826155E+02
   Pulay + GGA                 : 0.144790E+03 0.389048E+01 -.826015E+02
   Van der Waals               : 0.188962E-01 0.118022E-01 -.140443E-01
   ----------------------------------------------------------------
   Total forces(  23)            : -.397468E-03 0.260350E-03 -.412189E-04
  Removing unitary transformations (pure translations, rotations) from forces on atoms.
  Atomic forces before filtering:
  | Net force on center of mass :  -.604813E-02 0.101456E-02 -.532359E-03 eV/A
  | Net torque on center of mass:  -.157757E-02 -.451010E-02 0.117543E-02 eV
  Atomic forces after filtering:
  | Net force on center of mass :  -.479118E-18 -.108890E-18 0.435562E-19 eV/A
  | Net torque on center of mass:  -.460979E-19 -.921958E-18 0.368783E-18 eV
 
  Energy and forces in a compact form:
  | Total energy uncorrected      :         -0.566891124412647E+06 eV
  | Total energy corrected        :         -0.566891124412647E+06 eV
  | Free energy                   :         -0.566891124412647E+06 eV
  Total atomic forces (unitary forces cleaned) [eV/Ang]:
  |   1          0.260964348846861E-03         -0.337260489137074E-05          0.130417295094457E-03
  |   2         -0.935807670450793E-06         -0.626513763461092E-04          0.250615401305739E-03
  |   3         -0.723810209551095E-04          0.701521223132492E-05          0.151321834010311E-03
  |   4         -0.637331181932882E-03         -0.474077333898928E-03         -0.243885114347124E-03
  |   5         -0.843927013988004E-04          0.746168437847997E-03          0.254197076095786E-04
  |   6          0.503332207413282E-03         -0.194395420436758E-03         -0.174118624371823E-03
  |   7         -0.188875295584632E-03         -0.661946717688284E-04         -0.202125870533326E-03
  |   8          0.132834421693433E-03          0.248213005964036E-03         -0.139130097634401E-04
  |   9         -0.792375831342923E-04         -0.175611679845266E-03          0.107808206438628E-03
  |  10          0.137198333834539E-03         -0.605455884072623E-04         -0.547515788573348E-04
  |  11          0.130633216349729E-03         -0.394527004109531E-04          0.476116127487677E-04
  |  12          0.149797983989420E-04         -0.750475939243901E-04          0.368907557418149E-04
  |  13          0.263190194121561E-04         -0.311595390961046E-04         -0.952303892940689E-04
  |  14         -0.233467083158738E-04          0.208348335581356E-04          0.368744891888326E-04
  |  15         -0.115550398006702E-04          0.320211932673630E-04          0.208032907227931E-04
  |  16         -0.111633098856551E-04         -0.797824686349183E-05          0.247897546299958E-04
  |  17          0.102924176047462E-03         -0.230308675773323E-03          0.236182758049030E-03
  |  18         -0.639395916131419E-04         -0.354890058049696E-03          0.253077912569314E-03
  |  19         -0.307672319492438E-04          0.453338675205392E-04         -0.356558277701102E-04
  |  20         -0.167418429457213E-03         -0.274857464433851E-03         -0.954422509778302E-03
  |  21          0.991607195924126E-03          0.326005565169296E-03          0.137958804667073E-03
  |  22         -0.752375235114105E-03          0.485402765408985E-03          0.448223041846456E-03
  |  23         -0.177073581108461E-03          0.139548073178655E-03         -0.133891939907262E-03
 
  ------------------------------------ 
  Start decomposition of the XC Energy 
  ------------------------------------ 
  Hartree-Fock part   :          0.000000000 Ha              0.000000000 eV
  ------------------------------------ 
  X Energy            :       -435.773386926 Ha         -11857.997186513 eV
  C Energy GGA        :         -7.439959935 Ha           -202.451610465 eV
  Total XC Energy     :       -443.213346861 Ha         -12060.448796977 eV
  LDA X and C from self-consistent density 
  X Energy LDA        :       -414.872155144 Ha         -11289.245731962 eV
  C Energy LDA        :        -13.357383928 Ha           -363.472909988 eV
  ------------------------------------ 
  End decomposition of the XC Energy 
  ------------------------------------ 

------------------------------------------------------------
          Leaving FHI-aims.
          Date     :  20161129, Time     :  145428.695

          Computational steps:
          | Number of self-consistency cycles          :           15

          Detailed time accounting                     :  max(cpu_time)    wall_clock(cpu1)
          | Total time                                 :       81.044 s          81.057 s
          | Preparation time                           :        0.540 s           0.561 s
          | Grid partitioning                          :        0.260 s           0.261 s
          | Preloading free-atom quantities on grid    :        0.500 s           0.497 s
          | Free-atom superposition energy             :        0.088 s           0.086 s
          | Total time for integrations                :       30.064 s          30.032 s
          | Total time for solution of K.-S. equations :        2.360 s           2.343 s
          | Total time for density & force components  :       32.220 s          32.205 s
          | Total time for mixing                      :        0.236 s           0.218 s
          | Total time for Hartree multipole update    :        0.280 s           0.256 s
          | Total time for Hartree multipole sum       :       14.272 s          14.241 s
          | Total time for total energy evaluation     :        0.008 s           0.003 s
          | Total time for scaled ZORA corrections     :        0.000 s           0.000 s

          Have a nice day.
------------------------------------------------------------
