27
Energy: -169718.409259 eV PBE+vdW (tier 2 basis)
C    -0.324049  -0.471657  -0.168269
C    -0.152313  -0.295083  1.295413
O    1.004402  -0.451811  1.830257
H    0.057172  0.409562  -0.708672
H    -1.362198  -0.661827  -0.458025
H    0.308277  -1.314408  -0.482652
N    -1.185533  0.052216  2.103747
C    -2.197140  1.071449  1.746972
C    -1.476953  2.408445  1.502743
O    -0.334991  2.672553  2.035367
H    -2.760773  0.765531  0.855636
C    -3.106002  1.163320  3.013880
C    -2.653769  0.004548  3.915359
C    -1.185592  -0.199631  3.548446
H    -4.164488  1.095581  2.743719
H    -2.957029  2.128956  3.515020
H    -3.198347  -0.920235  3.679809
H    -2.794386  0.213459  4.980815
H    -0.761883  -1.185652  3.767739
H    -0.567813  0.554416  4.129018
N    -2.101171  3.317609  0.782227
C    -1.646415  4.690237  0.530557
H    -3.000654  3.056076  0.380269
H    -1.538243  4.842512  -0.549841
H    -2.393104  5.393044  0.919291
H    -0.688977  4.854429  1.028096
Cd    1.173406  1.414941  2.932720
