27
Energy: -169717.8436 eV PBE+vdW (tier 2 basis)
C    -0.490644  -0.122827  -0.393546
C    -0.283201  -0.529579  1.025101
O    0.718252  -1.109805  1.438019
H    -0.676681  0.957443  -0.479439
H    -1.360911  -0.637836  -0.827995
H    0.402940  -0.387107  -0.965407
N    -1.311189  -0.218289  1.960546
C    -1.082287  -0.178791  3.378346
C    -1.035958  -1.651371  4.063087
O    -1.816264  -1.809771  5.047865
H    -0.059268  0.178167  3.586405
C    -2.197694  0.717647  3.915606
C    -3.355786  0.473401  2.938564
C    -2.641785  0.292531  1.598245
H    -1.850443  1.758716  3.861050
H    -2.445665  0.503737  4.959143
H    -4.069421  1.302670  2.912227
H    -3.915782  -0.435738  3.197072
H    -2.511021  1.258197  1.074125
H    -3.136376  -0.387158  0.889404
N    -0.150521  -2.479708  3.573451
C    0.142344  -3.825309  4.058195
H    0.396424  -2.086866  2.769137
H    0.913099  -4.254871  3.409665
H    -0.741839  -4.475638  3.997611
H    0.553120  -3.804828  5.079770
Cd    -2.078443  -3.379019  6.562747
