27
Energy: -169718.732512 eV PBE+vdW (tier 2 basis)
C    0.160925  -0.945957  0.395911
C    -0.093912  0.106393  1.427154
O    0.732548  1.090725  1.445888
H    -0.560083  -0.843952  -0.430706
H    0.060888  -1.955846  0.813076
H    1.166591  -0.814106  -0.012969
N    -1.128230  -0.010819  2.273400
C    -1.526624  1.040849  3.234288
C    -0.536533  1.299093  4.392682
O    0.084331  2.430740  4.433799
H    -1.569356  2.006505  2.690619
C    -2.972729  0.682897  3.656771
C    -3.470194  -0.221686  2.520443
C    -2.230059  -1.007802  2.105034
H    -3.572489  1.590322  3.783055
H    -2.987570  0.152541  4.614823
H    -3.839816  0.376467  1.676843
H    -4.284954  -0.878959  2.842588
H    -2.266847  -1.358631  1.070440
H    -2.039026  -1.874570  2.754395
N    -0.320070  0.459162  5.385729
C    -0.881414  -0.861704  5.680532
H    0.331988  0.824776  6.084920
H    -0.090257  -1.460163  6.146014
H    -1.208452  -1.366594  4.770569
H    -1.715504  -0.776960  6.389878
Cd    0.756649  2.944718  2.481207
