27
Energy: -169718.97489 eV PBE+vdW (tier 2 basis)
C    0.921477  -1.518654  2.715817
C    0.326244  -0.325897  2.036376
O    1.051049  0.190636  1.104582
H    1.914088  -1.714941  2.303064
H    0.287182  -2.405714  2.572728
H    1.009658  -1.344833  3.798291
N    -0.881641  0.118110  2.409710
C    -1.736682  1.075962  1.651327
C    -1.441011  2.563609  1.964738
O    -0.548929  3.218974  1.305242
H    -1.542697  0.956137  0.571128
C    -3.161203  0.594553  1.982518
C    -3.060888  0.059266  3.417708
C    -1.680453  -0.592306  3.464987
H    -3.410867  -0.221247  1.290938
H    -3.919664  1.371661  1.831964
H    -3.853919  -0.662495  3.639878
H    -3.142545  0.850280  4.177058
H    -1.733676  -1.657357  3.204320
H    -1.184630  -0.494240  4.437270
N    -2.131039  3.199618  2.884383
C    -1.953259  4.614179  3.239957
H    -2.880269  2.690250  3.347697
H    -0.887779  4.862419  3.254043
H    -2.464465  5.252766  2.507871
H    -2.387816  4.776164  4.230009
Cd    0.840738  2.073103  0.205392
