27
Energy: -169718.379628 eV PBE+vdW (tier 2 basis)
C    -1.509705  -0.533308  -0.304273
C    -0.759727  -0.382648  0.969285
O    0.464939  -0.762618  1.034913
H    -1.166059  -1.457768  -0.788895
H    -1.261182  0.285604  -0.998117
H    -2.594165  -0.573860  -0.160015
N    -1.324402  0.160628  2.077309
C    -2.236821  1.314386  2.047822
C    -1.385877  2.589069  1.796973
O    -0.102027  2.567085  1.728141
H    -2.970315  1.215861  1.236587
C    -2.890018  1.255220  3.440165
C    -1.763649  0.744329  4.358724
C    -0.825855  -0.065390  3.445621
H    -3.721888  0.541009  3.397643
H    -3.297086  2.217789  3.767673
H    -2.147924  0.118776  5.171386
H    -1.224129  1.577441  4.824997
H    -0.779738  -1.145291  3.636282
H    0.234534  0.288408  3.610112
N    -2.032394  3.727833  1.654477
C    -1.425679  5.046228  1.432022
H    -3.050859  3.694224  1.678658
H    -1.538987  5.333154  0.378841
H    -1.939929  5.779780  2.061993
H    -0.365921  5.009710  1.692305
Cd    1.393863  1.015356  1.859370
