27
Energy: -169718.334207 eV PBE+vdW (tier 2 basis)
C    1.138906  -0.720785  0.612445
C    0.565892  -0.195625  1.879190
O    1.334817  0.371900  2.736348
H    0.532448  -1.515028  0.165326
H    2.145247  -1.103197  0.832418
H    1.274606  0.093239  -0.117554
N    -0.759208  -0.279714  2.158752
C    -1.815563  -0.078234  1.152372
C    -1.900676  1.435215  0.853189
O    -1.281426  2.314125  1.568029
H    -1.581251  -0.620021  0.227722
C    -3.063816  -0.639055  1.861220
C    -2.841883  -0.285269  3.343281
C    -1.316647  -0.206396  3.522227
H    -3.082166  -1.725637  1.709258
H    -4.001658  -0.233263  1.468961
H    -3.274048  -1.035829  4.013535
H    -3.309190  0.674627  3.593715
H    -0.862147  -0.996505  4.134293
H    -1.060117  0.745422  4.070219
N    -2.643434  1.869150  -0.144785
C    -3.471225  1.107109  -1.086692
H    -2.661626  2.886503  -0.248469
H    -3.190702  0.050862  -1.096339
H    -4.530792  1.200519  -0.815710
H    -3.323849  1.520420  -2.090377
Cd    0.267505  2.232466  3.063424
