27
Energy: -169718.600123 eV PBE+vdW (tier 2 basis)
C    -0.408747  -0.352889  -0.265653
C    -0.389666  0.745490  0.744529
O    0.430611  1.739260  0.570409
H    -1.429760  -0.571725  -0.606308
H    -0.007288  -1.286586  0.159430
H    0.207041  -0.064291  -1.122156
N    -1.218695  0.717598  1.787920
C    -1.512763  1.858283  2.699290
C    -0.372763  2.271815  3.639199
O    0.759297  1.648695  3.676333
H    -1.729236  2.736722  2.069658
C    -2.785040  1.378763  3.458585
C    -2.676643  -0.146575  3.440609
C    -2.131048  -0.434563  2.050778
H    -3.671901  1.720706  2.909504
H    -2.849661  1.777813  4.474322
H    -3.642936  -0.633540  3.608565
H    -1.982768  -0.505721  4.213015
H    -2.927780  -0.439145  1.291031
H    -1.572816  -1.374568  1.977017
N    -0.544296  3.298266  4.454683
C    -1.701082  4.177764  4.647680
H    0.263449  3.485050  5.053713
H    -1.327913  5.192705  4.823857
H    -2.281557  3.863152  5.525429
H    -2.345836  4.184050  3.764586
Cd    2.003797  1.857468  1.963978
