27
Energy: -169718.357559 eV PBE+vdW (tier 2 basis)
C    1.003130  -0.679591  0.549491
C    0.484955  -0.191337  1.852122
O    1.281233  0.372569  2.688111
H    1.123530  0.159788  -0.154101
H    0.369214  -1.449077  0.097613
H    2.012233  -1.081921  0.716772
N    -0.822043  -0.299975  2.194160
C    -1.939614  -0.070992  1.257379
C    -1.895076  1.395504  0.799090
O    -1.224630  2.291537  1.442592
H    -1.863305  -0.746809  0.397079
C    -3.219638  -0.342490  2.110830
C    -2.698065  -0.850495  3.466095
C    -1.293007  -0.258976  3.582595
H    -3.872427  -1.070284  1.618916
H    -3.796401  0.583330  2.233397
H    -2.609705  -1.945283  3.471275
H    -3.342253  -0.563906  4.303582
H    -0.599902  -0.795095  4.239548
H    -1.378983  0.795416  3.984645
N    -2.596029  1.783827  -0.246567
C    -3.476822  0.996400  -1.116766
H    -2.554912  2.788095  -0.435852
H    -3.299719  1.294646  -2.155594
H    -3.277012  -0.073583  -1.018397
H    -4.525643  1.194327  -0.861127
Cd    0.199865  2.218334  3.059478
