20
Energy: -14473.7295492 eV PBE+vdW (tier 2 basis)
N    1.248166  1.113844  3.229211
C    0.391140  0.563360  2.189996
C    -0.677520  -0.285675  2.860851
O    -0.604061  -0.760745  3.971680
H    2.164744  1.367312  2.864791
H    1.369376  0.435579  3.982544
H    -0.146341  1.386196  1.688672
C    1.118411  -0.219591  1.054422
C    1.974888  -1.416757  1.482728
C    1.312631  -2.735889  1.886693
O    1.860074  -3.504608  2.667202
N    0.132967  -3.051376  1.267136
H    1.779691  0.512592  0.565034
H    0.384412  -0.494330  0.280174
H    2.626288  -1.147954  2.324402
H    2.653998  -1.675351  0.654572
H    -0.395323  -2.380525  0.725502
H    -0.326169  -3.907774  1.552981
O    -1.757694  -0.473437  2.045451
H    -2.371677  -1.040870  2.550958
