20
Energy: -14473.8811107 eV PBE+vdW (tier 2 basis)
N    0.880186  -0.546751  0.725641
C    -0.272843  -0.661180  1.629443
C    -1.310015  0.456755  1.493039
O    -2.508859  0.310383  1.589387
H    1.272804  0.394918  0.788872
H    0.584237  -0.671391  -0.243086
H    -0.811616  -1.584591  1.374585
C    0.152787  -0.751552  3.113028
C    0.793772  -2.088070  3.546162
C    2.324191  -2.190887  3.522176
O    2.951064  -2.531883  4.523431
N    2.918322  -1.918471  2.329186
H    -0.754457  -0.603254  3.715484
H    0.818731  0.093192  3.349453
H    0.382003  -2.910898  2.939061
H    0.519209  -2.297451  4.585678
H    2.369438  -1.550697  1.543993
H    3.929753  -1.950236  2.289601
O    -0.727605  1.673706  1.279038
H    -1.458103  2.321359  1.245830
