20
Energy: -14473.8832242 eV PBE+vdW (tier 2 basis)
N    1.034848  0.685627  1.147558
C    0.031688  -0.369147  1.217676
C    -1.406181  0.150961  1.128649
O    -1.761617  1.279605  1.394353
H    0.793401  1.424297  1.812261
H    1.025026  1.124001  0.226600
H    0.184946  -1.051011  0.366192
C    0.181517  -1.173460  2.527266
C    1.541879  -1.856543  2.631454
C    1.823028  -2.383002  4.035310
O    1.317516  -1.906893  5.045580
N    2.703182  -3.431558  4.092240
H    -0.625565  -1.915864  2.594947
H    0.057467  -0.496530  3.385539
H    2.326255  -1.121593  2.387278
H    1.631238  -2.668706  1.893046
H    3.186926  -3.770602  3.271718
H    3.012795  -3.746083  5.003871
O    -2.272632  -0.821561  0.725150
H    -3.161715  -0.415938  0.738313
