20
Energy: -14473.9153809 eV PBE+vdW (tier 2 basis)
N    0.986931  1.168508  1.195857
C    0.692924  -0.185766  1.662738
C    -0.685611  -0.629743  1.199571
O    -0.987618  -1.771058  0.896505
H    0.357226  1.845051  1.629571
H    1.936700  1.423994  1.467586
H    1.398923  -0.867357  1.167903
C    0.809970  -0.389833  3.201227
C    0.573865  -1.821265  3.713484
C    1.610868  -2.805512  3.170016
O    2.738052  -2.889611  3.650349
N    1.188473  -3.572630  2.121015
H    0.108499  0.297810  3.698548
H    1.825338  -0.074249  3.484420
H    -0.446614  -2.155664  3.480601
H    0.684199  -1.824665  4.805103
H    0.348629  -3.317877  1.605483
H    1.880670  -4.155712  1.664253
O    -1.594963  0.375008  1.222364
H    -2.445462  -0.018429  0.945404
