20
Energy: -14473.816418 eV PBE+vdW (tier 2 basis)
N    0.833885  -2.380250  0.305906
C    0.454912  -1.060995  0.807824
C    1.419752  -0.708703  1.930415
O    1.818305  -1.487637  2.770829
H    0.078513  -2.770967  -0.257405
H    2.354970  0.733550  2.693860
H    0.587763  -0.320112  0.003854
C    -1.004549  -0.966544  1.321576
C    -1.461213  0.431059  1.744852
C    -2.983981  0.515370  1.846695
O    -3.732583  -0.060899  1.065461
N    -3.456696  1.301047  2.860676
H    -1.133279  -1.678803  2.151122
H    -1.663388  -1.302484  0.507492
H    -1.155816  1.169678  0.984634
H    -0.988444  0.744179  2.686833
H    -2.843059  1.783427  3.502470
H    -4.457300  1.435067  2.942535
O    1.767981  0.607784  1.922028
H    0.987228  -3.009768  1.096343
