20
Energy: -14473.8199233 eV PBE+vdW (tier 2 basis)
N    0.471702  0.134508  0.086702
C    0.310415  -0.424631  1.424557
C    -1.102148  -0.121880  1.899400
O    -2.007988  0.269658  1.193918
H    -0.410486  0.084247  -0.423489
H    1.178385  -0.389063  -0.427323
H    0.373642  -1.534040  1.440916
C    1.424613  0.115449  2.353083
C    1.769482  -0.766464  3.551366
C    2.369319  -2.109027  3.132447
O    2.928940  -2.287027  2.054352
N    2.257244  -3.105937  4.061395
H    1.165979  1.129747  2.686528
H    2.319808  0.208214  1.725143
H    0.899419  -0.922633  4.203839
H    2.530838  -0.257183  4.164376
H    1.801640  -2.963707  4.952349
H    2.691481  -4.000106  3.868173
O    -1.280673  -0.378238  3.228990
H    -2.220612  -0.179888  3.406279
