20
Energy: -14473.7333337 eV PBE+vdW (tier 2 basis)
N    1.048261  0.653548  1.213345
C    0.121005  -0.478588  1.325446
C    -1.329256  -0.003514  1.347839
O    -2.240912  -0.550150  1.927411
H    1.954978  0.331473  0.876585
H    0.702325  1.327825  0.531731
H    0.158832  -1.153150  0.439828
C    0.417472  -1.327120  2.567525
C    1.824579  -1.943539  2.540949
C    2.029778  -2.883958  3.724382
O    1.724317  -4.069852  3.685965
N    2.562231  -2.301833  4.844355
H    -0.331361  -2.126483  2.636102
H    0.300961  -0.690853  3.457326
H    2.590823  -1.153487  2.541852
H    1.955345  -2.549174  1.633485
H    2.734482  -1.307218  4.902192
H    2.619825  -2.854837  5.690963
O    -1.514322  1.107459  0.575383
H    -2.468362  1.310451  0.626334
