20
Energy: -14473.8193377 eV PBE+vdW (tier 2 basis)
N    2.479234  0.287225  1.070538
C    1.044756  0.240669  0.782394
C    0.150349  0.708449  1.933909
O    -0.711309  1.560859  1.853953
H    2.763194  1.227791  1.345599
H    2.704918  -0.332536  1.850132
H    0.843331  0.948971  -0.034564
C    0.658685  -1.176973  0.331766
C    -0.801237  -1.316845  -0.094750
C    -1.168468  -2.765157  -0.414606
O    -0.627163  -3.725268  0.120840
N    -2.170132  -2.915354  -1.334908
H    0.864651  -1.894528  1.138664
H    1.326095  -1.440933  -0.500529
H    -1.024761  -0.663056  -0.951698
H    -1.476239  -0.994910  0.716307
H    -2.647446  -2.125528  -1.747364
H    -2.513764  -3.848940  -1.524544
O    0.425815  0.053204  3.099451
H    -0.190508  0.415861  3.764412
