20
Energy: -14473.9068268 eV PBE+vdW (tier 2 basis)
N    1.243526  -0.731513  3.508321
C    0.419936  -0.043675  2.527895
C    -0.818110  0.641957  3.119120
O    -1.269942  0.455125  4.228081
H    1.476542  -0.106150  4.279606
H    0.726239  -1.513373  3.915474
H    1.027069  0.756737  2.070587
C    -0.020465  -1.004831  1.403448
C    1.150652  -1.760083  0.772830
C    1.585846  -2.972425  1.595770
O    0.784824  -3.672792  2.207021
N    2.916824  -3.281801  1.521841
H    -0.553717  -0.426881  0.638717
H    -0.727517  -1.744717  1.809549
H    1.999834  -1.086583  0.583081
H    0.836876  -2.156502  -0.206091
H    3.588798  -2.584495  1.229410
H    3.248769  -4.029944  2.119823
O    -1.374864  1.520377  2.234016
H    -2.158120  1.894569  2.682501
