20
Energy: -14473.8569174 eV PBE+vdW (tier 2 basis)
N    1.462514  1.104760  3.125873
C    0.614384  0.547837  2.077374
C    -0.813164  0.462119  2.600134
O    -1.209512  0.951667  3.637995
H    0.912901  1.704094  3.741815
H    2.226326  1.648148  2.730538
H    0.534784  1.203741  1.185594
C    1.158286  -0.809648  1.583754
C    1.218731  -1.862835  2.685744
C    2.112449  -3.041523  2.315807
O    3.043814  -2.956807  1.522570
N    1.807904  -4.217548  2.949214
H    2.176066  -0.650412  1.201494
H    0.555453  -1.162696  0.736574
H    0.212412  -2.219750  2.954507
H    1.645703  -1.395405  3.589320
H    1.100263  -4.268547  3.669605
H    2.438147  -5.001385  2.830356
O    -1.633873  -0.208986  1.746183
H    -2.522589  -0.172824  2.149550
