20
Energy: -14473.5762449 eV PBE+vdW (tier 2 basis)
N    -0.864895  0.846119  3.172766
C    0.022337  -0.222273  2.729634
C    1.451096  0.338930  2.692617
O    2.334879  -0.264128  1.844352
H    1.861729  -0.910051  1.290892
H    -1.693700  0.450645  3.615281
H    0.092201  -1.053428  3.467953
C    -0.495429  -0.828764  1.403914
C    -0.225906  -2.326034  1.228496
C    -1.030159  -3.165616  2.229788
O    -2.063968  -2.760371  2.748760
N    -0.523214  -4.407179  2.485877
H    -0.118988  -0.256000  0.542776
H    -1.583485  -0.691522  1.403620
H    0.842113  -2.594535  1.308652
H    -0.537214  -2.639840  0.219495
H    0.316971  -4.753135  2.042710
H    -1.049135  -5.029119  3.087985
O    1.826775  1.238285  3.405615
H    -0.376010  1.427014  3.855816
