20
Energy: -14473.9496604 eV PBE+vdW (tier 2 basis)
N    1.494189  -1.128629  0.895303
C    0.171005  -0.804732  1.438590
C    -0.420984  0.436414  0.766313
O    0.230182  1.299768  0.215387
H    1.396033  -1.572114  -0.018784
H    1.991040  -0.249221  0.722404
H    -0.506068  -1.648858  1.241123
C    0.202615  -0.570073  2.968206
C    0.414459  -1.831108  3.833215
C    1.842908  -2.174653  4.277080
O    2.092661  -2.426774  5.454646
N    2.778310  -2.206915  3.292002
H    -0.761675  -0.125264  3.249263
H    0.968858  0.188032  3.193684
H    -0.001639  -2.712002  3.316701
H    -0.146542  -1.726653  4.768393
H    2.531462  -1.959363  2.325695
H    3.732006  -2.424397  3.553675
O    -1.774546  0.482604  0.878067
H    -2.058274  1.321937  0.465037
