20
Energy: -14473.8393855 eV PBE+vdW (tier 2 basis)
N    0.650851  0.903472  1.724586
C    0.048924  -0.344856  1.263702
C    -1.429510  -0.284754  0.869007
O    -1.934753  -0.924180  -0.029902
H    0.140564  1.267006  2.530743
H    0.608003  1.618328  0.999040
H    0.570598  -0.656096  0.345974
C    0.218585  -1.446697  2.329837
C    1.686477  -1.765920  2.604282
C    1.873138  -2.558375  3.894255
O    1.141161  -2.429726  4.869652
N    2.939006  -3.417201  3.897571
H    -0.314563  -2.350558  2.002515
H    -0.253376  -1.123738  3.269696
H    2.238669  -0.818932  2.719830
H    2.139051  -2.295279  1.751831
H    3.573703  -3.491729  3.114491
H    3.163703  -3.901829  4.757985
O    -2.147603  0.560331  1.664577
H    -3.072627  0.492732  1.358326
