20
Energy: -14473.8391645 eV PBE+vdW (tier 2 basis)
N    0.106557  -0.477039  -0.469673
C    0.073619  0.000433  0.913988
C    1.370748  0.676545  1.334204
O    1.792736  0.741805  2.469911
H    0.604114  0.188708  -1.059002
H    -0.855818  -0.523999  -0.812481
H    -0.688407  0.797914  1.059724
C    -0.250473  -1.141183  1.893778
C    -1.527533  -1.926452  1.536128
C    -2.745402  -1.030231  1.365306
O    -2.980202  -0.435339  0.313213
N    -3.547202  -0.894837  2.462366
H    -0.326427  -0.722988  2.906441
H    0.591503  -1.847900  1.898222
H    -1.702161  -2.689875  2.307857
H    -1.380146  -2.449392  0.582789
H    -3.356709  -1.372275  3.332373
H    -4.344155  -0.271944  2.408566
O    2.010204  1.271733  0.286055
H    2.798804  1.702656  0.668569
