20
Energy: -14473.882621 eV PBE+vdW (tier 2 basis)
N    1.304636  0.971504  1.870380
C    0.138560  0.220627  1.413049
C    -0.898675  -0.152245  2.490698
O    -1.618351  -1.131780  2.472729
H    1.020679  1.889423  2.209906
H    1.720925  0.479605  2.666957
H    -0.426562  0.877775  0.727898
C    0.544642  -1.018297  0.593259
C    1.644414  -1.898434  1.224872
C    1.333651  -2.328935  2.650627
O    1.536495  -1.585489  3.612512
N    0.820869  -3.584100  2.805742
H    0.923617  -0.667369  -0.375782
H    -0.355634  -1.617206  0.402516
H    2.583114  -1.331003  1.264136
H    1.813519  -2.770756  0.577688
H    0.477426  -4.102325  2.007714
H    0.442345  -3.821053  3.715944
O    -0.977932  0.790952  3.467090
H    -1.665738  0.475107  4.084064
