20
Energy: -14473.8034604 eV PBE+vdW (tier 2 basis)
N    1.509311  0.937237  2.410609
C    0.505008  0.432872  1.488729
C    -0.910936  0.185550  2.024854
O    -1.898409  0.067689  1.325258
H    1.124729  1.651445  3.026739
H    1.878630  0.176850  2.987141
H    0.348209  1.188182  0.700757
C    1.002620  -0.852332  0.770675
C    0.662859  -2.202191  1.412600
C    1.316602  -2.499980  2.760736
O    2.232314  -1.837719  3.242735
N    0.823223  -3.603311  3.396642
H    2.090654  -0.745215  0.665695
H    0.576358  -0.864711  -0.240539
H    0.985347  -3.001385  0.724669
H    -0.428449  -2.323062  1.504031
H    0.071031  -4.159698  3.014089
H    1.238529  -3.879060  4.277849
O    -0.968918  0.093582  3.384103
H    -1.910715  -0.063742  3.592626
