20
Energy: -14473.7361899 eV PBE+vdW (tier 2 basis)
N    -0.199348  0.822342  0.689686
C    0.163765  0.197282  1.964207
C    1.672231  -0.005813  2.036449
O    2.358015  0.190480  3.015431
H    -0.011139  0.189643  -0.089011
H    -1.193450  1.047251  0.671833
H    -0.063962  0.916464  2.764591
C    -0.520134  -1.150353  2.307846
C    -2.030413  -1.019951  2.491504
C    -2.666862  -2.323461  2.978247
O    -2.075193  -3.130062  3.684312
N    -3.962239  -2.516584  2.580892
H    -0.090641  -1.557983  3.233910
H    -0.300477  -1.878148  1.511271
H    -2.519557  -0.686032  1.563265
H    -2.249774  -0.255240  3.256725
H    -4.467772  -1.834877  2.032019
H    -4.460776  -3.321605  2.940500
O    2.174941  -0.499617  0.868622
H    3.131996  -0.622409  1.019751
