20
Energy: -14473.7709993 eV PBE+vdW (tier 2 basis)
N    0.041932  1.028115  1.211377
C    -0.213483  -0.322908  1.706121
C    0.761438  -1.251136  0.996341
O    0.995186  -1.214984  -0.196283
H    -0.710094  1.658932  1.488602
H    0.079599  1.016203  0.190263
H    0.011177  -0.357334  2.782640
C    -1.672948  -0.818203  1.500325
C    -2.036729  -2.175933  2.117202
C    -1.618562  -3.478481  1.429695
O    -1.537655  -4.524409  2.063805
N    -1.430499  -3.437811  0.074353
H    -1.910754  -0.778183  0.424500
H    -2.313422  -0.053054  1.965834
H    -3.132951  -2.242681  2.202760
H    -1.654854  -2.250354  3.144442
H    -1.299087  -2.571446  -0.431840
H    -1.108231  -4.290739  -0.367665
O    1.304940  -2.160213  1.837145
H    1.850996  -2.760382  1.291384
