20
Energy: -14473.6550774 eV PBE+vdW (tier 2 basis)
N    -0.085902  1.076246  0.635162
C    0.067972  0.384819  1.920565
C    1.472796  -0.269217  1.898458
O    1.586636  -1.508228  1.370807
H    0.740772  -2.031862  1.402085
H    -0.896551  1.695175  0.654742
H    0.156970  1.163988  2.691317
C    -1.118534  -0.537985  2.271964
C    -0.944782  -1.426834  3.518226
C    -0.779249  -2.898452  3.155984
O    -0.357747  -3.264838  2.053624
N    -1.114536  -3.794846  4.116820
H    -1.339048  -1.180421  1.406395
H    -1.997632  0.108750  2.403207
H    -1.786340  -1.311217  4.215115
H    -0.043833  -1.135720  4.085418
H    -0.945004  -4.778865  3.945096
H    -1.439037  -3.506641  5.029743
O    2.451060  0.336154  2.274564
H    -0.233013  0.404993  -0.120294
