20
Energy: -14473.9399428 eV PBE+vdW (tier 2 basis)
N    0.327416  0.627803  0.306683
C    0.218777  -0.400114  1.335494
C    -1.132910  -0.502998  2.046384
O    -1.645428  -1.539792  2.434321
H    -0.366735  0.487421  -0.426982
H    0.160968  1.554369  0.700964
H    0.365333  -1.377140  0.852800
C    1.341384  -0.196400  2.378979
C    1.415932  -1.241850  3.503675
C    1.770404  -2.638237  2.987546
O    2.930901  -2.971649  2.766158
N    0.707153  -3.475509  2.797372
H    1.221615  0.802840  2.826691
H    2.285672  -0.185568  1.817833
H    0.481606  -1.264254  4.082788
H    2.222571  -0.954211  4.188930
H    -0.244597  -3.114760  2.792122
H    0.892940  -4.371758  2.362005
O    -1.722493  0.705209  2.241809
H    -2.550510  0.527599  2.729429
