20
Energy: -14473.8300043 eV PBE+vdW (tier 2 basis)
N    0.784705  1.443600  1.056141
C    0.639584  -0.003664  1.197618
C    -0.810566  -0.470075  1.031797
O    -1.782029  0.080113  1.506090
H    0.161278  1.912728  1.717111
H    0.490899  1.741583  0.125136
H    1.239046  -0.486129  0.411407
C    1.174500  -0.430293  2.576656
C    1.192174  -1.938785  2.815007
C    1.696695  -2.289434  4.214514
O    1.560454  -1.547318  5.179422
N    2.297357  -3.515112  4.319329
H    0.576375  0.051310  3.363448
H    2.190313  -0.020367  2.660865
H    1.795322  -2.450933  2.049298
H    0.175959  -2.359357  2.734935
H    2.390947  -4.141777  3.531904
H    2.586544  -3.833032  5.236313
O    -0.905727  -1.601837  0.271471
H    -1.857831  -1.823222  0.237538
