20
Energy: -14473.7939559 eV PBE+vdW (tier 2 basis)
N    0.029683  0.126681  3.875336
C    0.330747  -0.285955  2.509913
C    1.451881  0.601422  1.991257
O    1.665252  1.738186  2.354704
H    0.028242  1.147343  3.926238
H    -0.886934  -0.206319  4.170147
H    0.711302  -1.321070  2.521102
C    -0.838872  -0.211308  1.489771
C    -1.969953  -1.189786  1.810699
C    -3.176367  -0.971693  0.898293
O    -3.619356  0.142954  0.648903
N    -3.739257  -2.110575  0.391692
H    -0.452400  -0.427458  0.482164
H    -1.242255  0.811098  1.471721
H    -2.338078  -1.030452  2.838130
H    -1.610604  -2.228875  1.758166
H    -3.377937  -3.031958  0.595323
H    -4.564307  -2.023634  -0.189531
O    2.178296  -0.015434  1.019459
H    2.828916  0.644832  0.710513
