20
Energy: -14473.8445927 eV PBE+vdW (tier 2 basis)
N    1.211813  1.334897  2.900026
C    0.429622  0.559858  1.946171
C    -0.992151  0.442838  2.469681
O    -1.321701  0.542030  3.634167
H    2.199394  1.089017  2.853823
H    0.875168  1.169272  3.849283
H    0.374131  1.103703  0.988884
C    0.982379  -0.854752  1.617169
C    0.977586  -1.828611  2.795015
C    1.920488  -3.006231  2.560893
O    3.000242  -2.887004  1.991979
N    1.485995  -4.206404  3.051319
H    2.019179  -0.734360  1.270666
H    0.417178  -1.276015  0.772957
H    -0.040056  -2.178389  3.023132
H    1.341102  -1.317589  3.702838
H    0.616055  -4.298842  3.557460
H    2.106587  -5.004711  2.992650
O    -1.876693  0.161455  1.474990
H    -2.747319  0.066835  1.907896
