20
Energy: -14473.8476622 eV PBE+vdW (tier 2 basis)
N    -1.322195  -0.104741  0.618460
C    -0.746702  -0.713950  1.819152
C    0.241822  0.248530  2.477267
O    1.283506  -0.055423  3.018615
H    -1.813452  0.758523  0.843411
H    -1.980463  -0.750374  0.181110
H    -1.496555  -0.899959  2.621478
C    -0.094833  -2.066146  1.503941
C    0.852542  -2.050618  0.303009
C    0.118590  -2.096262  -1.035687
O    -0.958003  -2.669631  -1.185783
N    0.787876  -1.528388  -2.083686
H    -0.890230  -2.797891  1.302968
H    0.444296  -2.400134  2.398555
H    1.484895  -2.952202  0.336586
H    1.538606  -1.192445  0.345033
H    1.563795  -0.899424  -1.925600
H    0.309657  -1.481044  -2.975608
O    -0.216321  1.533349  2.448652
H    0.452171  2.065231  2.922128
