20
Energy: -14473.8863447 eV PBE+vdW (tier 2 basis)
N    0.107703  -0.153157  0.042511
C    -0.206278  -0.394605  1.445700
C    0.888341  0.190891  2.321796
O    1.789650  0.904943  1.933101
H    -0.747924  0.072929  -0.463558
H    0.754949  0.632431  -0.030616
H    -1.130246  0.128553  1.762757
C    -0.407447  -1.901839  1.727842
C    -1.428782  -2.562436  0.782018
C    -2.799880  -1.905246  0.841659
O    -3.039483  -0.829325  0.294561
N    -3.747268  -2.565724  1.572547
H    -0.711341  -2.039743  2.774638
H    0.556175  -2.414379  1.591162
H    -1.491011  -3.634827  1.016564
H    -1.068280  -2.466416  -0.250272
H    -3.569082  -3.461381  2.004904
H    -4.670498  -2.156654  1.652808
O    0.740480  -0.149465  3.633301
H    1.469578  0.297984  4.104540
