20
Energy: -14473.8151488 eV PBE+vdW (tier 2 basis)
N    0.087131  -0.082246  0.049625
C    -0.289363  -0.145157  1.462267
C    0.945425  -0.291229  2.340085
O    1.072488  0.214662  3.437938
H    0.575558  -0.936175  -0.223644
H    -0.751819  -0.018461  -0.528298
H    -0.721422  0.827558  1.741624
C    -1.322872  -1.252856  1.809916
C    -1.781976  -1.295706  3.270715
C    -0.830263  -2.083684  4.174559
O    -0.219675  -3.070874  3.777691
N    -0.777104  -1.661553  5.475229
H    -0.905700  -2.235170  1.543205
H    -2.192587  -1.077039  1.159589
H    -2.749697  -1.818299  3.330073
H    -1.951263  -0.282849  3.666074
H    -1.029512  -0.707737  5.701883
H    -0.076635  -2.100454  6.062868
O    1.879175  -1.104746  1.788638
H    2.583972  -1.205791  2.456925
