20
Energy: -14473.8051986 eV PBE+vdW (tier 2 basis)
N    2.298992  -1.306667  2.610245
C    1.214601  -0.824630  1.760468
C    1.534384  0.612423  1.380725
O    2.130278  1.398173  2.088856
H    2.503797  -0.614274  3.333068
H    2.052449  -2.183952  3.064984
H    1.187784  -1.420914  0.836141
C    -0.214729  -0.829399  2.376501
C    -0.700906  -2.219593  2.785479
C    -0.955855  -3.137238  1.588183
O    -1.331616  -2.717773  0.500129
N    -0.749578  -4.469305  1.823141
H    -0.918655  -0.419277  1.638989
H    -0.220732  -0.168518  3.256339
H    -1.660859  -2.121449  3.317393
H    -0.010698  -2.693415  3.501676
H    -0.491379  -4.823917  2.733865
H    -0.985989  -5.129228  1.091821
O    1.027297  0.946191  0.166099
H    1.230411  1.893765  0.039900
