20
Energy: -14473.6313366 eV PBE+vdW (tier 2 basis)
N    0.715320  1.306058  3.345845
C    0.073118  0.072050  2.887072
C    0.678450  -0.395413  1.566006
O    0.935976  -1.551645  1.310026
H    1.715990  1.167359  3.488941
H    0.323072  1.581002  4.247190
H    0.213609  -0.793136  3.560879
C    -1.445173  0.329725  2.767499
C    -2.307276  -0.865745  2.345496
C    -2.464952  -1.232889  0.867235
O    -2.909163  -2.326936  0.541843
N    -2.176831  -0.264407  -0.056104
H    -1.604446  1.210805  2.127424
H    -1.771642  0.645225  3.771418
H    -3.337278  -0.701296  2.697835
H    -1.970985  -1.786017  2.842327
H    -1.673061  0.581566  0.175682
H    -2.247088  -0.526862  -1.031979
O    0.880550  0.618404  0.676435
H    1.242808  0.186151  -0.122069
