25
Energy: -172740.3545409  eV PBE+vdW (tier 2 basis)
C    -1.459863  -1.109289  -0.589988
C    -0.884242  -0.986395  0.782506
O    -0.036396  -1.851375  1.187424
H    -2.282428  -1.840223  -0.572050
H    -0.685240  -1.511686  -1.252871
H    -1.834488  -0.161444  -0.989053
N    -1.244036  0.040721  1.583889
C    -2.607267  0.607728  1.666169
C    -2.673905  2.149980  1.690027
O    -3.680000  2.677013  2.150108
H    -0.731452  0.068422  2.468952
H    -3.146901  0.277488  0.770063
C    -3.352774  0.034817  2.926202
C    -2.716576  -1.313798  3.216694
O    -2.962717  -2.297318  2.447642
O    -1.762496  -1.340993  4.075777
H    -4.417817  -0.073455  2.702592
H    -3.228707  0.706612  3.779740
N    -1.613408  2.802726  1.161113
C    -1.557088  4.255977  1.058195
H    -0.838414  2.256582  0.801880
H    -2.440053  4.663850  1.559182
H    -1.563058  4.573413  0.007580
H    -0.652957  4.639542  1.546260
Cd    -0.846715  -2.998893  2.904965
