25
Energy: -172740.0894862  eV PBE+vdW (tier 2 basis)
C    0.172495  -1.927792  2.781137
C    0.090854  -0.516626  3.322389
O    1.021089  0.023226  3.901762
H    0.164214  -1.931111  1.681479
H    1.112997  -2.369403  3.119466
H    -0.662215  -2.549442  3.134649
N    -1.105905  0.167048  3.164685
C    -2.238903  -0.220224  2.364708
C    -1.914830  -0.122349  0.841709
O    -1.247639  0.818073  0.312033
H    -1.098168  1.122380  3.522093
H    -2.500814  -1.270223  2.571234
C    -3.506097  0.614117  2.761548
C    -3.251481  1.997410  2.194080
O    -2.318285  2.685006  2.751386
O    -3.718539  2.267514  1.045599
H    -3.585776  0.620850  3.854149
H    -4.406127  0.179094  2.317425
N    -2.317392  -1.142061  0.090519
C    -2.104873  -1.224123  -1.353453
H    -2.785887  -1.915829  0.551841
H    -2.508909  -2.174769  -1.710703
H    -2.617772  -0.398830  -1.862128
H    -1.034225  -1.173696  -1.584646
Cd    -1.589810  2.999760  0.664039
