25
Energy: -172740.2053212  eV PBE+vdW (tier 2 basis)
C    0.460167  0.237823  0.719588
C    -0.168596  0.736563  1.973911
O    0.415728  1.651056  2.664818
H    -0.237983  0.310902  -0.125251
H    1.353023  0.827427  0.501157
H    0.706851  -0.826228  0.834266
N    -1.328612  0.234591  2.436956
C    -2.517133  -0.262201  1.712279
C    -2.204388  -1.565482  0.928018
O    -1.229901  -2.239005  1.239131
H    -1.560142  0.585317  3.364879
H    -3.195496  -0.575881  2.517730
C    -3.231016  0.893425  0.916195
C    -2.668742  2.216948  1.427911
O    -2.915433  2.570919  2.631883
O    -1.791625  2.796034  0.710886
H    -4.312536  0.852814  1.089835
H    -3.024308  0.833302  -0.156727
N    -3.095047  -1.895209  -0.036294
C    -3.020293  -3.155009  -0.769808
H    -3.915682  -1.316782  -0.175752
H    -3.732033  -3.889468  -0.369704
H    -3.238056  -2.980324  -1.829231
H    -2.007440  -3.553848  -0.664570
Cd    -0.833304  3.458317  2.650893
