25
Energy: -172740.4047971  eV PBE+vdW (tier 2 basis)
C    0.713101  -1.550532  1.387095
C    0.354000  -0.110669  1.520702
O    1.023759  0.777345  0.912575
H    0.011515  -2.213362  1.903390
H    0.803345  -1.822617  0.329037
H    1.707396  -1.686788  1.839584
N    -0.678166  0.265910  2.332197
C    -2.052857  -0.245496  2.212314
C    -2.373744  -0.540516  0.725700
O    -1.797465  0.081485  -0.210198
H    -0.697337  1.281816  2.495529
H    -2.196579  -1.150569  2.820409
C    -3.018649  0.873667  2.716771
C    -3.005247  2.040264  1.703154
O    -3.926216  2.211143  0.930089
O    -1.842432  2.709726  1.704197
H    -2.689716  1.195361  3.713686
H    -4.036212  0.476494  2.788147
N    -3.302560  -1.458896  0.483663
C    -3.838488  -1.753621  -0.844163
H    -3.727111  -1.924087  1.280647
H    -4.134612  -2.806215  -0.883172
H    -3.066258  -1.561168  -1.593741
H    -4.709533  -1.119327  -1.054723
Cd    -0.656935  2.056651  0.091113
