25
Energy: -172740.0555700  eV PBE+vdW (tier 2 basis)
C    1.097082  -0.045835  0.380125
C    -0.081717  -0.136878  1.320608
O    -1.218038  0.196179  0.999737
H    1.417405  1.003941  0.324236
H    0.772950  -0.342033  -0.622908
H    1.956437  -0.654978  0.684608
N    0.211239  -0.627992  2.579338
C    -0.646955  -0.605810  3.754238
C    -1.262507  -1.978981  4.152779
O    -1.241925  -2.330310  5.388080
H    1.185628  -0.837456  2.768616
H    0.018629  -0.402552  4.603505
C    -1.697615  0.567252  3.769298
C    -2.332437  0.419219  5.139612
O    -3.403302  -0.267741  5.217166
O    -1.611395  0.707638  6.157742
H    -2.439660  0.478009  2.976148
H    -1.152468  1.512126  3.673301
N    -1.747514  -2.843990  3.273893
C    -1.924525  -2.745081  1.826344
H    -2.047487  -3.716150  3.708454
H    -2.098475  -1.710109  1.518293
H    -2.797842  -3.347654  1.556898
H    -1.045925  -3.140669  1.299989
Cd    -2.355583  -1.235143  6.966898
