25
Energy: -172740.7926729  eV PBE+vdW (tier 2 basis)
C    0.582021  0.873403  -0.434987
C    0.043410  -0.378970  0.207355
O    0.452295  -1.473953  -0.248538
H    1.674395  0.798591  -0.488376
H    0.206642  0.917320  -1.466149
H    0.307583  1.797317  0.085281
N    -0.830619  -0.166368  1.226660
C    -1.625037  -0.998243  2.161695
C    -0.794846  -2.121962  2.828089
O    -0.014826  -2.886387  2.215428
H    -1.002355  0.822582  1.372003
H    -1.882770  -0.292573  2.962986
C    -3.006839  -1.490610  1.595409
C    -2.693260  -2.566261  0.571968
O    -2.455115  -3.738226  1.044101
O    -2.368995  -2.194323  -0.591443
H    -3.524287  -0.638590  1.141510
H    -3.596248  -1.889033  2.429095
N    -0.966282  -2.239173  4.148611
C    -0.338418  -3.298184  4.935283
H    -1.548434  -1.564497  4.631957
H    0.731867  -3.099450  5.074421
H    -0.455422  -4.258181  4.421045
H    -0.828506  -3.344257  5.911602
Cd    -0.475954  -3.450973  0.020996
