25
Energy: -172740.6978318  eV PBE+vdW (tier 2 basis)
C    -0.155587  0.030008  -0.068664
C    0.097067  -0.461735  1.333742
O    1.224222  -0.961507  1.563504
H    -0.194954  -0.842658  -0.734590
H    0.695853  0.643624  -0.384255
H    -1.079850  0.606923  -0.181117
N    -0.947545  -0.297781  2.189459
C    -1.252558  -0.589768  3.610142
C    -0.146778  -0.113285  4.576245
O    1.078231  -0.224017  4.329406
H    -1.745379  0.118528  1.721977
H    -2.132323  0.035317  3.807946
C    -1.725812  -2.062395  3.895104
C    -0.488190  -2.933388  3.772655
O    -0.150211  -3.322796  2.621090
O    0.298774  -2.927275  4.791133
H    -2.490819  -2.336136  3.160869
H    -2.145143  -2.104377  4.906648
N    -0.544563  0.459652  5.718886
C    -1.898691  0.734916  6.191695
H    0.227526  0.704836  6.335349
H    -2.461345  -0.188291  6.382344
H    -2.453205  1.367405  5.485997
H    -1.821573  1.282534  7.135070
Cd    1.798855  -2.170333  3.305363
