25
Energy: -172740.3470086  eV PBE+vdW (tier 2 basis)
C    -2.076265  0.370164  -0.098850
C    -1.274227  -0.333528  0.963865
O    -0.611357  -1.350284  0.761430
H    -2.771137  1.117770  0.301124
H    -2.627072  -0.375108  -0.683047
H    -1.381476  0.873851  -0.784698
N    -1.276576  0.231666  2.218694
C    -0.469463  -0.388564  3.243419
C    -0.923344  -1.863132  3.445255
O    -2.146541  -2.227261  3.532399
H    -1.902010  0.991102  2.469352
H    0.567317  -0.430386  2.884167
C    -0.437269  0.462424  4.550567
C    -1.801014  0.275920  5.186186
O    -2.801879  0.784601  4.560915
O    -1.922772  -0.618043  6.080680
H    -0.242049  1.507090  4.282720
H    0.346910  0.097621  5.220121
N    0.008703  -2.805576  3.511472
C    1.426569  -2.680674  3.175627
H    -0.362797  -3.747130  3.622448
H    1.540462  -2.303315  2.150137
H    1.873660  -3.676611  3.235763
H    1.952407  -2.029814  3.884300
Cd    -3.667782  -1.270782  4.793953
