25
Energy: -172740.4310805  eV PBE+vdW (tier 2 basis)
C    -1.252754  -0.393202  -0.539968
C    -0.797404  -0.308102  0.891809
O    0.393128  -0.253781  1.215326
H    -2.336960  -0.508899  -0.649404
H    -0.939522  0.522486  -1.058321
H    -0.742343  -1.231408  -1.028889
N    -1.787414  -0.276721  1.847890
C    -1.438723  -0.087486  3.245908
C    -1.025747  -1.484957  3.831710
O    -1.754737  -2.382711  4.373072
H    -2.764771  -0.409654  1.604211
H    -0.506766  0.494811  3.243100
C    -2.475740  0.784467  3.994501
C    -3.622124  -0.116542  4.399599
O    -4.213360  -0.763098  3.462920
O    -3.735022  -0.415333  5.632217
H    -2.804014  1.577804  3.312298
H    -2.031651  1.234104  4.886978
N    0.256394  -1.745836  3.619669
C    0.889412  -3.023156  3.926486
H    0.732545  -1.092398  2.979828
H    0.482990  -3.826118  3.296611
H    1.962247  -2.927142  3.741036
H    0.725332  -3.282957  4.977883
Cd    -3.901994  -2.500174  4.860530
