25
Energy: -172740.3926114  eV PBE+vdW (tier 2 basis)
C    0.357181  -0.956662  0.456227
C    -0.070911  -0.496771  1.811022
O    0.798150  -0.468339  2.761505
H    -0.299365  -0.600747  -0.343884
H    0.384616  -2.055382  0.439189
H    1.379287  -0.601104  0.281109
N    -1.324944  -0.107675  2.050272
C    -2.571085  -0.550178  1.428957
C    -3.596160  0.531744  1.857596
O    -3.331570  1.236984  2.831616
H    -1.540948  0.413510  2.916524
H    -2.460160  -0.605397  0.340567
C    -3.026488  -1.972104  1.982953
C    -2.017870  -2.381017  3.046407
O    -1.005195  -3.059607  2.688418
O    -2.106202  -1.831496  4.200673
H    -3.031890  -2.713856  1.179815
H    -4.023112  -1.897650  2.430305
N    -4.750044  0.607166  1.164002
C    -5.119716  -0.130038  -0.039640
H    -5.397310  1.307267  1.516202
H    -4.439028  0.080490  -0.876454
H    -6.121216  0.190487  -0.340158
H    -5.160294  -1.214192  0.132749
Cd    0.118276  -1.873434  4.294028
