25
Energy: -172740.1872500  eV PBE+vdW (tier 2 basis)
C    -0.240112  -0.091455  -0.110054
C    -0.052729  -0.017752  1.366375
O    1.117361  -0.177526  1.868736
H    -0.493820  0.903466  -0.505872
H    0.691848  -0.431499  -0.568371
H    -1.063000  -0.764787  -0.377810
N    -1.091582  0.181716  2.206926
C    -2.304055  1.025857  2.030974
C    -3.062930  0.740044  0.703114
O    -3.046928  1.550639  -0.215899
H    -0.811319  0.120409  3.186315
H    -2.953206  0.738875  2.866812
C    -1.973812  2.555265  2.152267
C    -0.503885  2.694418  2.502398
O    0.329033  2.868786  1.555491
O    -0.128124  2.404610  3.695002
H    -2.590221  3.003757  2.937385
H    -2.170696  3.029389  1.184937
N    -3.720034  -0.445098  0.636105
C    -3.917589  -1.434248  1.690797
H    -4.242285  -0.564343  -0.228231
H    -4.412700  -2.305688  1.252213
H    -4.559153  -1.057244  2.500882
H    -2.962939  -1.774963  2.110691
Cd    1.802863  1.701770  2.793789
