25
Energy: -172740.0289279  eV PBE+vdW (tier 2 basis)
C    -0.405376  0.535334  -0.269108
C    -0.166455  0.236358  1.188392
O    0.883095  0.474970  1.770642
H    0.476412  0.231338  -0.843698
H    -0.511706  1.622254  -0.388701
H    -1.298035  0.048296  -0.678644
N    -1.230271  -0.353617  1.865528
C    -1.175842  -0.525361  3.299944
C    -1.506482  -1.992155  3.680014
O    -2.523369  -2.367900  4.349443
H    -2.118964  -0.468587  1.387633
H    -0.112692  -0.376880  3.552491
C    -1.973323  0.621619  3.999481
C    -2.369959  0.172615  5.388821
O    -3.616488  0.086697  5.654444
O    -1.458482  -0.349911  6.116463
H    -2.880456  0.874894  3.443500
H    -1.316077  1.499670  4.029249
N    -0.673254  -2.932540  3.229914
C    0.547412  -2.813049  2.435651
H    -0.971077  -3.876938  3.470135
H    1.231705  -3.611123  2.741814
H    1.037348  -1.848719  2.599563
H    0.328711  -2.922996  1.365342
Cd    -3.055376  -1.897266  6.486687
