25
Energy: -172740.2051602  eV PBE+vdW (tier 2 basis)
C    -0.397176  -1.346753  0.697866
C    -0.292960  0.123066  0.912829
O    0.729096  0.765439  0.468225
H    -0.395119  -1.858323  1.669669
H    -1.345529  -1.604484  0.206997
H    0.433831  -1.682511  0.073941
N    -1.227768  0.810946  1.595013
C    -2.692464  0.626971  1.669341
C    -3.066431  -0.697122  2.388811
O    -2.244788  -1.246772  3.111965
H    -0.950618  1.776043  1.766510
H    -3.015441  1.420896  2.356893
C    -3.378728  0.898073  0.278545
C    -2.354424  1.601986  -0.607512
O    -1.756452  0.898185  -1.482677
O    -1.972101  2.781934  -0.295746
H    -4.258924  1.536853  0.415415
H    -3.668857  -0.033084  -0.217644
N    -4.334156  -1.129987  2.196406
C    -4.878542  -2.280820  2.910999
H    -4.975689  -0.568903  1.647788
H    -5.564058  -2.827689  2.255030
H    -5.414263  -1.970239  3.818244
H    -4.049641  -2.932884  3.201043
Cd    0.064754  2.178346  -1.077672
