25
Energy: -172740.4715901  eV PBE+vdW (tier 2 basis)
C    -0.862531  -1.752672  -0.331941
C    -0.591809  -1.557532  1.123999
O    -0.036036  -2.511821  1.786235
H    -0.943100  -0.810333  -0.882774
H    -1.794461  -2.322806  -0.454374
H    -0.050679  -2.357337  -0.752231
N    -0.902745  -0.414798  1.741071
C    -1.987598  0.523191  1.454500
C    -1.544312  1.836765  2.145677
O    -0.772271  1.764196  3.100473
H    -0.512708  -0.224865  2.676616
H    -2.106775  0.641566  0.371650
C    -3.362031  0.026638  2.088232
C    -3.098776  -1.324964  2.734784
O    -3.193431  -2.370565  2.019349
O    -2.567693  -1.334953  3.901473
H    -4.124240  -0.077641  1.311119
H    -3.697846  0.737363  2.849616
N    -2.094791  2.968904  1.665706
C    -1.847154  4.283884  2.248100
H    -2.688690  2.912207  0.845369
H    -1.352187  4.939309  1.521024
H    -1.194934  4.153186  3.116013
H    -2.789631  4.745090  2.567727
Cd    -1.469568  -3.171010  3.300588
