25
Energy: -172740.4718588  eV PBE+vdW (tier 2 basis)
C    0.197760  -0.807392  0.208627
C    -0.183400  -0.318447  1.567506
O    0.748355  -0.044141  2.412917
H    1.115534  -0.290125  -0.094564
H    -0.582364  -0.642441  -0.541054
H    0.427686  -1.881083  0.260412
N    -1.462593  -0.149707  1.911879
C    -2.646473  -0.877791  1.457339
C    -3.826702  0.058509  1.820022
O    -3.673380  0.866608  2.734751
H    -1.689220  0.389174  2.761810
H    -2.582374  -1.068404  0.380107
C    -2.807229  -2.260451  2.231766
C    -1.616123  -2.394185  3.168488
O    -0.547552  -2.917221  2.722572
O    -1.661252  -1.766492  4.285351
H    -2.816270  -3.094781  1.524785
H    -3.733486  -2.253806  2.814902
N    -4.963719  -0.131178  1.122779
C    -6.194515  0.605896  1.390575
H    -4.963081  -0.802330  0.362193
H    -6.007934  1.285249  2.226963
H    -7.004910  -0.083969  1.656904
H    -6.491361  1.189964  0.510849
Cd    0.526603  -1.426455  4.093120
