25
Energy: -172740.4023015  eV PBE+vdW (tier 2 basis)
C    0.607026  -1.521466  1.028987
C    0.316021  -0.093579  1.338990
O    0.948830  0.833369  0.751676
H    -0.149307  -2.199289  1.439910
H    0.725408  -1.668435  -0.048863
H    1.566295  -1.771239  1.509919
N    -0.571438  0.219646  2.341380
C    -2.001944  -0.121041  2.303660
C    -2.430539  -0.370604  0.832535
O    -1.795327  0.146443  -0.119706
H    -0.444458  1.197265  2.644585
H    -2.228983  -1.003448  2.920521
C    -2.818588  1.103060  2.888009
C    -2.374589  2.292191  2.040676
O    -2.918112  2.458864  0.906419
O    -1.250263  2.824009  2.359264
H    -2.559210  1.239672  3.943536
H    -3.889800  0.903162  2.785328
N    -3.489712  -1.157942  0.650598
C    -4.106558  -1.425797  -0.645749
H    -3.916812  -1.574976  1.472696
H    -5.084478  -0.932388  -0.710613
H    -4.236134  -2.505917  -0.777174
H    -3.452592  -1.037414  -1.430086
Cd    -0.715735  2.272855  0.178503
