25
Energy: -172740.1138691  eV PBE+vdW (tier 2 basis)
C    0.090763  -2.694305  0.693909
C    -0.191491  -1.787239  1.836413
O    -0.379256  -2.250039  3.003082
H    1.122021  -3.060400  0.830344
H    0.048080  -2.176422  -0.267997
H    -0.582428  -3.556261  0.706346
N    -0.135063  -0.419696  1.698111
C    -1.005629  0.498664  0.933713
C    -1.538783  1.492639  2.012088
O    -1.490145  1.229223  3.248594
H    0.056098  -0.000313  2.612494
H    -0.400922  1.074760  0.215919
C    -2.158350  -0.188979  0.164329
C    -2.945715  -1.190645  1.040042
O    -3.042321  -2.358141  0.709622
O    -3.417593  -0.646731  2.158668
H    -1.768740  -0.714037  -0.714142
H    -2.844692  0.588591  -0.198778
N    -2.000829  2.656986  1.577977
C    -2.580150  3.671733  2.459061
H    -1.952287  2.856171  0.583632
H    -2.858555  4.537424  1.852741
H    -1.851608  3.977909  3.218577
H    -3.472310  3.275245  2.958619
Cd    -2.082096  -0.962135  3.740638
