23
Energy: -32038.7400366 eV PBE+vdW (tier 2 basis)
C    0.502670  0.986853  0.956614
C    -0.378863  -0.212827  0.948425
O    0.122291  -1.387237  0.950990
H    -0.027006  1.920783  0.749567
H    1.269186  0.831441  0.182768
H    1.045840  1.071609  1.909413
N    -1.726013  -0.089624  0.928115
C    -2.455535  0.795845  1.833237
C    -2.385736  0.146254  3.254261
O    -1.662440  -0.890044  3.456890
H    -2.219064  -0.955000  0.698221
H    -1.908589  1.749149  1.895920
C    -3.878772  1.050305  1.332737
H    -4.469263  0.125116  1.297539
H    -3.838139  1.482456  0.326407
H    -4.411583  1.768389  1.967759
N    -3.069663  0.700594  4.231476
C    -3.087545  0.228636  5.622023
H    -3.638638  1.514258  4.008025
H    -2.066744  0.175338  6.016678
H    -3.558938  -0.759664  5.682038
H    -3.666777  0.938796  6.217376
Ca    -0.306678  -2.423426  2.783519
