23
Energy: -32037.6733101 eV PBE+vdW (tier 2 basis)
C    0.421017  0.331684  1.942948
C    -0.669509  -0.669653  1.781196
O    -0.340606  -1.940718  1.836142
H    0.943825  0.176282  2.892941
H    0.068032  1.364597  1.907930
H    1.137301  0.184732  1.119067
N    -1.887301  -0.364903  1.351081
C    -2.579594  0.842607  1.800426
C    -2.480318  0.796009  3.375864
O    -1.658186  0.025222  3.894741
H    -2.494842  -1.163563  1.164320
H    -2.008222  1.723221  1.471809
C    -3.986536  0.901396  1.213527
H    -4.617473  0.081076  1.581384
H    -3.947811  0.864169  0.118067
H    -4.479712  1.845978  1.471106
N    -3.268045  1.639088  4.044643
C    -3.266390  1.776482  5.501546
H    -3.926557  2.207069  3.521659
H    -2.338443  1.354301  5.895730
H    -4.121560  1.247912  5.941637
H    -3.326768  2.837993  5.763980
Ca    0.364701  -3.660979  2.527256
