23
Energy: -32038.685264 eV PBE+vdW (tier 2 basis)
C    0.043142  0.547460  -0.362257
C    0.213006  0.303959  1.095530
O    1.376883  0.208884  1.609083
H    0.637439  -0.215757  -0.888310
H    0.472519  1.516948  -0.653045
H    -0.994040  0.479838  -0.700888
N    -0.859958  0.170951  1.910319
C    -1.984086  1.109276  1.921396
C    -1.422316  2.498684  2.336586
O    -0.224463  2.585592  2.792303
H    -0.633515  -0.207572  2.832069
H    -2.396042  1.189269  0.904992
C    -3.064679  0.605109  2.885064
H    -3.932856  1.270926  2.904108
H    -2.679480  0.528822  3.911244
H    -3.406989  -0.384660  2.561249
N    -2.161475  3.584032  2.229141
C    -3.524937  3.734585  1.708107
H    -1.718642  4.437777  2.573490
H    -4.245597  3.779391  2.534557
H    -3.784574  2.911356  1.037311
H    -3.574489  4.672474  1.144942
Ca    1.774149  1.819657  2.985007
