23
Energy: -32038.6129758 eV PBE+vdW (tier 2 basis)
C    -1.657959  1.072367  0.001668
C    -0.360883  0.840004  0.696888
O    0.718655  1.323823  0.215859
H    -1.904199  0.217765  -0.649651
H    -1.557083  1.954019  -0.640318
H    -2.485493  1.211258  0.703971
N    -0.271777  0.119874  1.841998
C    -0.864004  -1.208852  2.060099
C    -0.212114  -2.183742  1.027321
O    0.736672  -1.778136  0.269255
H    0.631350  0.236469  2.302431
H    -0.485822  -1.518040  3.046975
C    -2.394948  -1.269224  2.115382
H    -2.722403  -2.209348  2.577695
H    -2.869294  -1.191697  1.132017
H    -2.767229  -0.466275  2.761884
N    -0.650117  -3.424411  0.994971
C    -0.138624  -4.513142  0.158080
H    -1.418131  -3.659946  1.621700
H    0.194782  -5.336365  0.801198
H    0.698574  -4.152027  -0.441577
H    -0.938624  -4.874384  -0.499317
Ca    2.007669  -0.230990  -0.518526
