23
Energy: -32039.285839 eV PBE+vdW (tier 2 basis)
C    -0.490055  -0.642252  0.144758
C    -0.229796  -0.432494  1.598887
O    0.966931  -0.403664  2.031723
H    -0.095717  -1.629483  -0.138340
H    0.068638  0.101102  -0.439048
H    -1.550251  -0.593545  -0.123512
N    -1.279035  -0.282970  2.418500
C    -1.324558  -0.243547  3.900449
C    -0.700989  1.041610  4.467340
O    0.564850  1.214593  4.404654
H    -2.188432  -0.317906  1.964630
H    -2.395389  -0.227600  4.124978
C    -0.737759  -1.493275  4.567569
H    -0.866627  -1.433533  5.655484
H    0.328069  -1.637909  4.354738
H    -1.268931  -2.383823  4.212012
N    -1.441383  1.957267  5.065919
C    -2.887250  2.047515  5.293174
H    -0.897677  2.744757  5.427104
H    -3.388105  1.095761  5.104524
H    -3.316181  2.822116  4.645138
H    -3.057192  2.325379  6.339513
Ca    2.287840  0.484899  3.408804
