23
Energy: -32039.2986931 eV PBE+vdW (tier 2 basis)
C    -0.223783  -0.168545  0.009151
C    -0.171891  -0.314855  1.493078
O    0.893713  -0.729280  2.053108
H    0.609607  0.462242  -0.327103
H    -1.166868  0.248245  -0.358628
H    -0.072772  -1.160647  -0.441713
N    -1.265189  -0.005447  2.202489
C    -1.554644  -0.225138  3.640020
C    -0.701301  0.662817  4.559711
O    0.553883  0.457797  4.676878
H    -2.058030  0.316268  1.652807
H    -2.597600  0.091517  3.748189
C    -1.475028  -1.697361  4.063432
H    -1.768772  -1.803255  5.115306
H    -0.473114  -2.125828  3.941446
H    -2.167317  -2.292985  3.457164
N    -1.276307  1.608947  5.279389
C    -2.689567  2.014723  5.324259
H    -0.640590  2.104458  5.906677
H    -3.062985  2.259371  4.323653
H    -2.756544  2.916021  5.939641
H    -3.309421  1.235867  5.785176
Ca    2.159521  -0.548932  3.723872
