27
Energy: -240738.487762 eV PBE+vdW (tier 2 basis)
C    0.806636  -0.930626  3.768655
C    0.166198  -0.104653  2.698937
O    0.662755  1.026782  2.373275
H    0.069276  -1.390782  4.437055
H    1.490090  -0.306007  4.350028
H    1.393439  -1.744151  3.314000
N    -0.924533  -0.553345  2.068066
C    -1.520978  0.197933  0.935834
C    -2.013610  1.601804  1.322451
O    -1.375889  2.601678  0.855776
H    -0.721972  0.388009  0.202976
C    -2.555034  -0.771148  0.325814
C    -2.042655  -2.157227  0.747610
C    -1.474963  -1.932176  2.149253
H    -2.609356  -0.646956  -0.760666
H    -3.560831  -0.592440  0.721022
H    -1.248340  -2.499935  0.070967
H    -2.833241  -2.914841  0.740297
H    -0.685220  -2.642155  2.412969
H    -2.251442  -1.978952  2.927359
N    -3.062770  1.813542  2.108100
C    -3.939480  0.877775  2.815712
H    -3.297559  2.801288  2.209217
H    -4.254476  1.350866  3.751835
H    -4.834844  0.651304  2.222628
H    -3.412645  -0.045617  3.062529
Ba    0.970445  3.153027  1.265300
