27
Energy: -240738.686571 eV PBE+vdW (tier 2 basis)
C    0.950912  -1.379612  2.833371
C    0.273526  -0.266371  2.097884
O    0.889808  0.357886  1.171292
H    1.966669  -1.504782  2.451211
H    0.403819  -2.324859  2.704399
H    0.991768  -1.179601  3.913252
N    -0.985471  0.058603  2.416367
C    -1.803881  1.023806  1.635056
C    -1.415640  2.487331  1.943662
O    -0.448104  3.014914  1.313532
H    -1.578038  0.887980  0.568118
C    -3.243764  0.596285  1.965792
C    -3.163274  0.017671  3.386595
C    -1.808236  -0.688896  3.409265
H    -3.537920  -0.189300  1.257178
H    -3.971873  1.407083  1.846349
H    -3.984857  -0.673687  3.600187
H    -3.201112  0.797036  4.161866
H    -1.896746  -1.735135  3.083541
H    -1.328135  -0.672206  4.394383
N    -2.109849  3.164274  2.843551
C    -1.872595  4.556555  3.225939
H    -2.878347  2.682536  3.302607
H    -1.305277  5.056933  2.437636
H    -2.836960  5.057874  3.358253
H    -1.312543  4.603566  4.168883
Ba    1.553124  2.374121  0.058828
