27
Energy: -240737.226113 eV PBE+vdW (tier 2 basis)
C    -0.058859  0.298063  -0.042526
C    -0.040547  0.019152  1.432327
O    1.032795  0.000543  2.069696
H    -0.561972  1.251548  -0.259384
H    -0.581181  -0.489461  -0.601674
H    0.975110  0.362166  -0.390211
N    -1.224467  -0.231195  2.073710
C    -1.317716  -0.201086  3.553867
C    -0.634867  -1.358780  4.302946
O    -1.280032  -1.946788  5.272402
H    -0.805241  0.712974  3.908739
C    -2.830355  -0.104434  3.828712
C    -3.403519  0.532268  2.557348
C    -2.563509  -0.117252  1.458870
H    -3.047757  0.480644  4.733370
H    -3.254442  -1.120672  3.936405
H    -3.241304  1.618558  2.570153
H    -4.476749  0.353305  2.433230
H    -2.520875  0.486016  0.548021
H    -2.944552  -1.114459  1.187895
N    0.588990  -1.655422  3.983825
C    1.432712  -2.672550  4.591934
H    0.970644  -1.002067  3.206075
H    1.882659  -3.281239  3.798948
H    0.854063  -3.313607  5.262573
H    2.243027  -2.187837  5.152402
Ba    -2.891947  -2.434112  6.800946
