27
Energy: -240738.105299 eV PBE+vdW (tier 2 basis)
C    -0.768745  0.768232  -0.162876
C    -0.377194  0.039779  1.088806
O    0.840877  -0.280099  1.283176
H    -0.709542  1.859140  -0.019679
H    -1.784054  0.526672  -0.495770
H    -0.056964  0.501282  -0.951472
N    -1.305033  -0.241243  2.022547
C    -2.415188  0.672188  2.298076
C    -1.813870  2.004491  2.837807
O    -0.564125  2.129308  3.030112
H    -2.997491  0.891968  1.392890
C    -3.243850  -0.094985  3.346391
C    -2.173889  -0.820400  4.173752
C    -1.091607  -1.186740  3.150883
H    -3.892447  -0.807164  2.819760
H    -3.887152  0.554131  3.950400
H    -2.569045  -1.705497  4.682383
H    -1.769656  -0.154685  4.949000
H    -1.201404  -2.206801  2.758816
H    -0.074146  -1.120268  3.561262
N    -2.657586  2.991413  3.085692
C    -2.274303  4.304319  3.613954
H    -3.644785  2.831398  2.899497
H    -1.599272  4.814777  2.916807
H    -1.780592  4.194832  4.586500
H    -3.179497  4.904058  3.737608
Ba    1.798558  1.330895  2.865676
