27
Energy: -240738.353084 eV PBE+vdW (tier 2 basis)
C    -0.375870  -0.445547  -0.194822
C    -0.339584  0.689214  0.786763
O    0.587139  1.567152  0.696174
H    -1.275011  -0.383167  -0.825541
H    -0.401585  -1.424330  0.302841
H    0.497918  -0.386819  -0.848829
N    -1.266574  0.751948  1.745737
C    -1.493917  1.899512  2.661656
C    -0.301791  2.394667  3.473842
O    0.804592  1.772228  3.538520
H    -1.856526  2.743525  2.050504
C    -2.628822  1.393752  3.590228
C    -3.427713  0.451882  2.691818
C    -2.349619  -0.265333  1.889987
H    -3.232766  2.214851  3.986460
H    -2.192789  0.850453  4.441149
H    -4.089759  1.020786  2.025041
H    -4.047574  -0.247196  3.262770
H    -2.698850  -0.594334  0.906682
H    -1.947361  -1.135961  2.428861
N    -0.452046  3.525778  4.163694
C    -1.601978  4.429931  4.261690
H    0.335611  3.740326  4.774107
H    -2.257682  4.144429  5.093805
H    -2.174464  4.441745  3.329257
H    -1.226046  5.441703  4.443969
Ba    2.648071  1.747806  1.925635
