27
Energy: -240738.447787 eV PBE+vdW (tier 2 basis)
C    0.389553  -0.918925  0.701217
C    -0.054161  0.188796  1.601566
O    0.694257  1.204299  1.796785
H    0.328102  -1.895137  1.200854
H    1.418206  -0.741064  0.378866
H    -0.256050  -0.974524  -0.188335
N    -1.253933  0.119850  2.193911
C    -1.797701  1.256898  2.968949
C    -0.984791  1.582407  4.240216
O    -0.275374  2.640993  4.221832
H    -1.676394  2.167884  2.365636
C    -3.302950  0.938480  3.126786
C    -3.475802  -0.550444  2.775297
C    -2.293754  -0.894238  1.867342
H    -3.854717  1.568637  2.419258
H    -3.682665  1.187628  4.123956
H    -4.428316  -0.731530  2.266519
H    -3.474165  -1.181716  3.669570
H    -2.554499  -0.801272  0.803150
H    -1.905128  -1.905535  2.035924
N    -0.993922  0.836842  5.337813
C    -1.675374  -0.425210  5.630263
H    -0.445793  1.236283  6.099405
H    -1.199065  -0.864729  6.511359
H    -1.567803  -1.128972  4.800078
H    -2.736458  -0.264647  5.856325
Ba    1.514699  3.290944  2.691466
