28
Energy: -573088.8396976  eV PBE+vdW (tier 2 basis)
C    0.48945  -0.07432  0.20228
C    0.07387  0.47098  1.54901
O    0.83189  1.38273  1.98885
H    -0.21583  -0.79908  -0.21888
H    1.47505  -0.54547  0.30760
H    0.60020  0.76530  -0.49432
N    -1.03722  -0.09909  2.06759
C    -1.98040  -0.01220  3.22157
C    -2.22714  1.41792  3.73368
O    -1.50434  2.38363  3.43407
H    -1.36195  -0.82503  1.43697
H    -2.92961  -0.28534  2.73623
C    -1.76177  -1.13510  4.30960
C    -1.17928  -0.78844  5.70191
C    0.06035  0.05997  5.48131
O    0.97864  -0.36962  4.76254
O    -0.05049  1.30086  5.88016
H    -1.12157  -1.89460  3.84372
H    -2.73656  -1.61300  4.48012
H    -0.90690  -1.72735  6.19986
H    -1.89742  -0.25400  6.33122
N    -3.30855  1.55614  4.51578
C    -3.65066  2.82963  5.14510
H    -3.90981  0.75822  4.68873
H    -3.78741  3.60935  4.38669
H    -2.85193  3.14026  5.83073
H    -4.58061  2.70167  5.70541
Hg    0.88303  2.06302  4.06049
