28
Energy: -573088.8606349  eV PBE+vdW (tier 2 basis)
C    -0.50158  1.28993  0.67003
C    -0.54054  0.48374  1.92713
O    0.38765  0.67331  2.78749
H    0.53934  1.35215  0.33094
H    -0.83684  2.31371  0.88615
H    -1.12701  0.86546  -0.12175
N    -1.50348  -0.41946  2.15187
C    -2.83424  -0.59027  1.54487
C    -3.57181  0.73174  1.17214
O    -4.15997  0.77200  0.09567
H    -1.33223  -1.03244  2.95146
H    -2.73779  -1.11732  0.58626
C    -3.68882  -1.47902  2.48433
C    -4.07813  -0.92264  3.87839
C    -2.83758  -0.43010  4.63473
O    -1.97284  -1.30111  4.97794
O    -2.64834  0.82012  4.74114
H    -3.16464  -2.43756  2.61372
H    -4.62076  -1.69853  1.94607
H    -4.53400  -1.73390  4.45871
H    -4.79260  -0.09679  3.80496
N    -3.54323  1.75415  2.05373
C    -4.24997  3.00298  1.77974
H    -3.14525  1.61416  2.98249
H    -4.14920  3.65673  2.65071
H    -5.31311  2.81559  1.58256
H    -3.82606  3.50463  0.90068
Hg    -0.29104  0.34912  4.95480
