28
Energy: -573088.5087941  eV PBE+vdW (tier 2 basis)
C    -0.34412  -0.84653  0.52936
C    -0.21787  -0.04476  1.79346
O    0.86913  -0.10213  2.42426
H    -1.33675  -0.77004  0.07178
H    -0.12230  -1.89771  0.74933
H    0.41127  -0.49483  -0.18504
N    -1.29971  0.69050  2.16531
C    -1.24426  1.57788  3.32057
C    -1.54953  0.78989  4.61667
O    -0.59188  0.28159  5.24476
H    -2.12277  0.64595  1.57343
H    -0.16919  1.71633  3.38335
C    -1.73447  3.02772  3.13172
C    -0.95405  4.04439  4.03476
C    0.50611  3.54632  4.09620
O    1.16754  3.46229  3.05316
O    0.79839  2.96990  5.22817
H    -2.80642  3.15785  3.31987
H    -1.54856  3.28323  2.08016
H    -1.37041  4.09322  5.04505
H    -0.99845  5.03843  3.57631
N    -2.80705  0.60338  5.03977
C    -4.06035  1.02825  4.42743
H    -2.87087  0.06726  5.90321
H    -4.39127  2.00422  4.80783
H    -3.97437  1.07677  3.33732
H    -4.83038  0.28604  4.66274
Hg    1.61880  1.08726  4.36955
