28
Energy: -573088.8457093  eV PBE+vdW (tier 2 basis)
C    0.26762  1.28213  0.75956
C    -0.05640  0.84829  2.15475
O    0.84144  0.44208  2.95918
H    -0.62190  1.41214  0.13419
H    0.94067  0.54996  0.29890
H    0.79902  2.24428  0.80531
N    -1.33408  0.90721  2.55238
C    -1.81514  0.50258  3.86841
C    -2.94833  -0.52727  3.60390
O    -3.60303  -0.40967  2.56624
H    -2.07204  1.00590  1.85043
H    -0.96299  0.05774  4.39386
C    -2.41587  1.65991  4.70683
C    -1.69717  3.02653  4.64453
C    -0.17248  2.88397  4.69236
O    0.33526  2.07413  5.51874
O    0.48092  3.50861  3.79518
H    -2.46309  1.30977  5.74575
H    -3.45160  1.84866  4.38651
H    -2.01105  3.63970  5.50108
H    -1.94704  3.57849  3.73406
N    -3.19209  -1.46891  4.53584
C    -2.51780  -1.69254  5.80859
H    -3.99188  -2.05873  4.31659
H    -2.59597  -2.75388  6.06574
H    -2.96782  -1.10424  6.62097
H    -1.45235  -1.44834  5.73920
Hg    2.21520  1.97550  4.04892
