28
Energy: -573088.2606538  eV PBE+vdW (tier 2 basis)
C    -0.26681  -1.21135  -0.31993
C    -0.03315  -0.53949  0.99048
O    1.16627  -0.22352  1.32831
H    -0.35084  -2.29449  -0.15310
H    0.58668  -1.00589  -0.97079
H    -1.19226  -0.88679  -0.80698
N    -1.00950  -0.24580  1.86417
C    -2.48971  -0.24590  1.81880
C    -3.00530  -1.44799  0.98287
O    -2.38290  -2.50202  1.11119
H    -0.63742  0.19429  2.70690
H    -2.78980  -0.57058  2.83077
C    -3.00260  1.20497  1.69198
C    -2.54854  2.01394  0.46306
C    -1.05082  2.33583  0.52214
O    -0.35233  2.06501  -0.49863
O    -0.57696  2.77349  1.61969
H    -2.66596  1.74948  2.58678
H    -4.09672  1.20134  1.74870
H    -3.08394  2.97422  0.44980
H    -2.74371  1.50736  -0.48831
N    -4.11803  -1.38892  0.20754
C    -5.15716  -0.37801  0.02331
H    -4.33449  -2.31308  -0.15998
H    -5.67903  -0.13866  0.95952
H    -5.89521  -0.79331  -0.66941
H    -4.77064  0.54083  -0.43086
Hg    1.53341  2.00294  0.94014
