28
Energy: -573088.6572016  eV PBE+vdW (tier 2 basis)
C    0.16552  0.43772  0.26538
C    -0.05263  0.33835  1.75244
O    0.74668  0.79354  2.57724
H    0.36858  1.48156  -0.00050
H    -0.68164  0.06370  -0.31994
H    1.06086  -0.14394  0.00972
N    -1.19577  -0.29057  2.17039
C    -1.48960  -0.52446  3.55344
C    -2.48612  -1.72152  3.58868
O    -3.33500  -1.83291  2.70984
H    -1.91461  -0.57456  1.50514
H    -0.54302  -0.75469  4.06537
C    -2.18495  0.65227  4.31690
C    -1.29204  1.87487  4.38648
C    -1.87690  2.94218  5.40637
O    -1.85306  4.11737  4.94765
O    -2.26350  2.55909  6.52347
H    -2.42280  0.30350  5.33035
H    -3.13408  0.87445  3.80894
H    -1.15946  2.38173  3.42891
H    -0.29375  1.66389  4.80044
N    -2.34528  -2.55386  4.64049
C    -3.16068  -3.75146  4.80575
H    -1.55238  -2.42153  5.25925
H    -3.33684  -3.92268  5.87321
H    -2.66699  -4.63378  4.37613
H    -4.11410  -3.59698  4.29133
Hg    -2.72391  5.01053  6.96808
