28
Energy: -573088.4069048  eV PBE+vdW (tier 2 basis)
C    -0.25348  -0.89358  0.43585
C    -0.06700  -0.05755  1.67867
O    1.00237  0.47235  1.95153
H    0.70704  -1.35429  0.18667
H    -0.53051  -0.23364  -0.39819
H    -1.02234  -1.66908  0.52937
N    -1.13671  0.12314  2.54830
C    -2.55055  -0.12330  2.28734
C    -2.84883  -1.65731  2.30537
O    -3.68494  -2.17112  1.53513
H    -0.91856  0.79953  3.27838
H    -3.06912  0.25576  3.18391
C    -3.15660  0.61355  1.06423
C    -4.58491  1.16651  1.26248
C    -5.52265  -0.01657  1.56277
O    -6.01936  -0.62942  0.57639
O    -5.59159  -0.38003  2.77424
H    -3.13368  -0.02615  0.17384
H    -2.51950  1.48681  0.86831
H    -4.62959  1.87332  2.09896
H    -4.92682  1.65705  0.34606
N    -2.19284  -2.35922  3.23569
C    -2.43525  -3.77273  3.47394
H    -1.49571  -1.86734  3.78862
H    -1.66469  -4.15678  4.14758
H    -3.42058  -3.92941  3.93978
H    -2.40755  -4.32501  2.52705
Hg    -6.16459  -2.54591  1.92641
