28
Energy: -573088.6789181  eV PBE+vdW (tier 2 basis)
C    -0.96064  0.29782  0.33284
C    -0.38225  0.69187  1.66096
O    0.48745  1.60272  1.70536
H    -0.19251  -0.27369  -0.20729
H    -1.17014  1.20215  -0.24939
H    -1.86926  -0.30968  0.40844
N    -0.86450  0.03750  2.74155
C    -0.53400  0.17287  4.16995
C    0.05314  1.57580  4.47460
O    1.27864  1.81263  4.56786
H    -1.55592  -0.67633  2.53345
H    -1.51211  0.15569  4.66982
C    0.27865  -0.99878  4.82756
C    1.02578  -2.02909  3.94140
C    2.05974  -1.27652  3.11045
O    2.95739  -0.65693  3.80732
O    1.86109  -1.10344  1.88867
H    1.00820  -0.54890  5.51181
H    -0.42538  -1.57260  5.44460
H    1.51647  -2.74371  4.61333
H    0.35983  -2.58027  3.26948
N    -0.83015  2.55488  4.71815
C    -2.28937  2.49779  4.73883
H    -0.39173  3.44811  4.93503
H    -2.68371  2.04789  3.82000
H    -2.66676  3.52273  4.79813
H    -2.66399  1.94813  5.61339
Hg    2.59205  1.20037  2.62968
