28
Energy: -573088.5085212  eV PBE+vdW (tier 2 basis)
C    0.21062  1.34298  0.89073
C    -0.29918  1.03076  2.26894
O    -0.10483  1.87871  3.17783
H    1.28717  1.54523  0.94551
H    -0.27731  2.25994  0.53617
H    0.02642  0.53535  0.17352
N    -0.93788  -0.15853  2.43273
C    -1.55408  -0.51191  3.70573
C    -0.50490  -1.14185  4.65236
O    0.12776  -0.38738  5.42722
H    -1.02362  -0.76030  1.62015
H    -1.67370  0.48270  4.12439
C    -3.01128  -1.01584  3.67863
C    -3.80641  -0.61227  4.96815
C    -3.30630  0.79205  5.37073
O    -2.49789  0.76852  6.39326
O    -3.45038  1.73992  4.58790
H    -3.09948  -2.10074  3.54932
H    -3.48841  -0.53829  2.81262
H    -4.87652  -0.58324  4.73515
H    -3.63391  -1.31496  5.78850
N    -0.23306  -2.45341  4.61802
C    -0.78121  -3.48816  3.74906
H    0.47678  -2.73982  5.28969
H    -1.64895  -3.98594  4.20290
H    -1.06923  -3.07884  2.77565
H    -0.00464  -4.23968  3.57180
Hg    -0.84404  1.92876  5.46066
