28
Energy: -573088.7374971  eV PBE+vdW (tier 2 basis)
C    -0.60076  0.52473  0.49266
C    -0.09652  0.39219  1.89319
O    1.10019  -0.04503  2.04715
H    0.24349  0.50676  -0.20012
H    -1.17802  1.44707  0.35175
H    -1.27632  -0.31743  0.28351
N    -0.85988  0.67580  2.95397
C    -2.10826  1.45754  3.05838
C    -3.17565  0.88121  2.07876
O    -3.24186  -0.33437  1.93718
H    -0.46620  0.39813  3.85051
H    -2.50824  1.19191  4.04949
C    -1.83285  2.97748  3.04356
C    -0.95614  3.50631  4.20716
C    0.43934  2.87938  4.16409
O    1.19018  3.14798  3.18648
O    0.71655  2.00846  5.06051
H    -2.79135  3.50910  3.13917
H    -1.38283  3.27715  2.08651
H    -0.84193  4.59224  4.10032
H    -1.41044  3.29222  5.18048
N    -3.99006  1.77089  1.46425
C    -5.09993  1.35646  0.61318
H    -3.87469  2.76077  1.64308
H    -6.06240  1.59697  1.08305
H    -5.04013  1.85788  -0.36027
H    -5.03329  0.27406  0.47141
Hg    2.28555  1.07850  3.62262
