28
Energy: -573088.4753393  eV PBE+vdW (tier 2 basis)
C    0.04690  -0.20064  0.83848
C    0.13791  -0.13542  2.34097
O    1.00389  -0.69848  2.99178
H    0.98894  -0.60319  0.45700
H    -0.14146  0.78328  0.38897
H    -0.76286  -0.87760  0.52939
N    -0.82010  0.62095  3.03128
C    -2.11975  1.00251  2.56350
C    -2.34257  2.57653  2.59131
O    -3.47150  3.01159  2.39882
H    -0.69671  0.54936  4.04326
H    -2.19816  0.75790  1.49401
C    -3.28089  0.35348  3.34026
C    -3.44456  -1.11171  2.97960
C    -4.58624  -1.78424  3.80960
O    -4.64120  -1.55735  5.03834
O    -5.34606  -2.53716  3.13548
H    -4.18151  0.93039  3.08246
H    -3.12856  0.46697  4.42411
H    -2.55705  -1.71351  3.23125
H    -3.67266  -1.25886  1.91849
N    -1.24392  3.31373  2.79593
C    -1.24937  4.77300  2.75627
H    -0.36502  2.81300  2.89018
H    -1.11236  5.14377  1.73187
H    -0.43630  5.14615  3.38691
H    -2.20733  5.13964  3.13839
Hg    -6.60692  -3.07725  5.07895
