28
Energy: -573088.7795516  eV PBE+vdW (tier 2 basis)
C    0.36715  1.58856  2.26700
C    0.32676  0.33070  1.45658
O    1.41157  -0.07882  0.91945
H    -0.23930  1.50538  3.17657
H    -0.01706  2.42714  1.66717
H    1.40522  1.80984  2.53050
N    -0.81046  -0.35794  1.30023
C    -2.19623  0.09216  1.47071
C    -3.10240  -1.03178  2.03444
O    -3.91763  -0.73765  2.90165
H    -0.70260  -1.22969  0.78060
H    -2.21499  0.86141  2.25050
C    -2.78247  0.73132  0.18113
C    -2.88789  -0.14064  -1.09594
C    -1.50813  -0.68876  -1.46131
O    -1.17899  -1.84417  -1.05643
O    -0.69995  0.12452  -2.01985
H    -2.19031  1.62867  -0.04669
H    -3.79637  1.07942  0.42529
H    -3.57383  -0.98441  -0.96177
H    -3.25872  0.48954  -1.91231
N    -2.95859  -2.28187  1.52288
C    -3.80935  -3.38098  1.96581
H    -2.39377  -2.42955  0.68800
H    -3.27712  -4.32622  1.81915
H    -4.75740  -3.40944  1.41023
H    -4.03968  -3.24163  3.02713
Hg    1.16328  -0.93795  -1.21392
