18
Energy: -565324.838074 eV PBE+vdW (tier 2 basis)
N    -0.068826  -0.378380  0.274409
C    0.074222  0.002658  1.622873
C    1.455380  -0.427367  2.232679
O    1.795124  -0.329767  3.413244
H    0.229784  0.234564  -0.482351
H    -0.333012  -1.325374  0.008249
H    0.095519  1.105879  1.681243
C    -1.159852  -0.489117  2.441268
O    -1.264732  0.472487  3.548010
C    -1.153132  -1.939205  2.885254
H    -2.043020  -0.300453  1.803240
H    -2.199307  0.535199  3.842396
H    -2.082464  -2.179923  3.417084
H    -0.297657  -2.180347  3.533631
H    -1.112391  -2.613591  2.017549
O    2.262173  -0.881757  1.308721
H    3.154340  -1.111163  1.663161
Hg    0.388012  0.296198  5.287948
