18
Energy: -565325.10555 eV PBE+vdW (tier 2 basis)
N    0.487154  -0.304412  0.094424
C    -0.086483  0.067508  1.441563
C    0.416690  -1.037561  2.399811
O    1.240639  -1.846287  2.039870
H    0.881387  0.496698  -0.416645
H    1.241984  -1.005014  0.287313
H    0.383804  1.008829  1.763473
C    -1.615187  0.261603  1.425003
O    -2.335275  -0.831480  0.942615
C    -2.083632  1.374785  0.409241
H    -1.932740  0.603410  2.423353
H    -0.214326  -0.762557  -0.507790
H    -3.156693  1.545433  0.530663
H    -1.880648  1.105393  -0.633632
H    -1.531086  2.288195  0.685740
O    -0.165739  -0.951905  3.596192
H    0.276811  -1.561109  4.229374
Hg    -2.884659  -2.477528  2.124433
