18
Energy: -565325.091189 eV PBE+vdW (tier 2 basis)
N    0.299849  -0.400218  0.167016
C    -0.080644  -0.028669  1.578236
C    0.998424  -0.709102  2.455336
O    1.925956  -1.279760  1.918041
H    0.420827  0.411068  -0.452770
H    1.227258  -0.898375  0.293266
H    -0.002494  1.063158  1.691530
C    -1.577322  -0.372242  1.969220
O    -1.612687  -1.770389  1.741643
C    -2.591528  0.430987  1.178095
H    -1.618752  -0.134946  3.045252
H    -0.363196  -1.055980  -0.267095
H    -2.566395  0.224454  0.099787
H    -2.471184  1.509570  1.344102
H    -3.603431  0.179219  1.545826
O    0.775667  -0.536804  3.743682
H    1.510359  -0.917313  4.274416
Hg    -3.354706  -2.800658  2.158415
