18
Energy: -565325.464445 eV PBE+vdW (tier 2 basis)
N    1.322490  -2.056154  0.946654
C    0.547543  -0.816948  1.336339
C    1.421927  0.065505  2.271020
O    1.164074  1.303978  2.277028
H    2.011838  -1.886082  0.200193
H    0.613411  -2.738433  0.604076
H    0.317073  -0.261882  0.417765
C    -0.795713  -1.285502  2.027517
O    -1.242805  -2.301318  1.139026
C    -1.782900  -0.160962  2.244895
H    -0.532471  -1.785175  2.976596
H    -2.082532  -2.054137  0.705998
H    -2.036099  0.348587  1.303774
H    -1.401561  0.587523  2.949629
H    -2.703045  -0.570621  2.683207
O    2.304944  -0.510078  2.950516
H    1.820612  -2.460372  1.756766
Hg    2.751217  1.703069  3.891004
