18
Energy: -565325.454888 eV PBE+vdW (tier 2 basis)
N    0.683228  -0.741974  0.050557
C    0.088236  -0.258673  1.354010
C    1.251333  0.002786  2.371825
O    0.924632  0.503603  3.481412
H    1.616165  -0.346233  -0.135250
H    0.066847  -0.526546  -0.746319
H    -0.421881  0.699415  1.193932
C    -0.878562  -1.351805  1.862626
O    -0.112312  -2.545435  1.733353
C    -2.186242  -1.374002  1.051191
H    -1.115062  -1.139528  2.916974
H    -0.621984  -3.325845  2.016135
H    -2.825523  -2.170018  1.456997
H    -2.026172  -1.589741  -0.013962
H    -2.728206  -0.425898  1.158450
O    2.419795  -0.288659  2.011525
H    0.768207  -1.778682  0.137468
Hg    3.124502  0.483234  4.175075
