18
Energy: -565325.218226 eV PBE+vdW (tier 2 basis)
N    -0.797785  0.584383  0.347180
C    -0.123259  -0.006688  1.566849
C    1.406106  0.181138  1.298642
O    1.766178  0.468577  0.177755
H    -0.992615  1.589351  0.469973
H    -0.130424  0.502555  -0.450661
H    -0.426742  0.565644  2.453158
C    -0.530901  -1.519922  1.742635
O    -1.940854  -1.329134  1.804044
C    0.064752  -2.154374  2.983290
H    -0.243724  -2.066381  0.826325
H    -1.688648  0.107444  0.146673
H    -0.344697  -3.177714  3.069175
H    -0.180431  -1.597364  3.895631
H    1.151457  -2.270693  2.910331
O    2.126951  0.029194  2.387619
H    3.080452  0.183997  2.198439
Hg    -3.157073  -2.963170  2.254618
