18
Energy: -565324.662001 eV PBE+vdW (tier 2 basis)
N    -0.125653  0.584166  0.025029
C    0.251204  0.098722  1.326043
C    1.604020  -0.668999  1.166737
O    2.236681  -1.285213  2.060888
H    -0.143128  1.595437  -0.111565
H    -0.883657  0.110671  -0.467771
H    0.482415  0.954422  1.983288
C    -0.882082  -0.725795  1.996785
O    -0.600771  -0.632585  3.451111
C    -1.071919  -2.148231  1.511732
H    -1.816022  -0.150478  1.863898
H    -1.414750  -0.843798  3.958607
H    -1.319857  -2.164882  0.440007
H    -1.914765  -2.625946  2.027502
H    -0.173164  -2.769570  1.646901
O    2.129521  -0.627785  -0.003740
H    1.480190  -0.096924  -0.576113
Hg    1.411330  -1.672458  4.107264
