24
Energy: -614515.5183846  eV PBE+vdW (tier 2 basis)
C    -0.299328  0.211150  -0.111457
C    -0.248079  0.098364  1.378920
O    0.784355  0.258152  2.043142
H    -0.127424  1.263843  -0.380012
H    -1.251023  -0.110845  -0.547842
H    0.525339  -0.366483  -0.545376
N    -1.431258  -0.195346  2.033198
C    -1.526792  -0.075632  3.483533
C    -0.923139  -1.303851  4.208607
O    -1.617722  -2.077882  4.994704
H    -2.255768  -0.438120  1.491597
H    -0.875464  0.774284  3.758171
C    -2.976527  0.272492  3.833663
S    -3.364599  0.712294  5.584993
H    -3.677044  -0.540867  3.594127
H    -3.277600  1.152276  3.250512
H    -2.194458  1.319108  5.923376
N    0.338561  -1.528083  3.968411
C    1.149508  -2.630813  4.474238
H    0.763302  -0.830854  3.287931
H    1.917300  -2.235299  5.152170
H    1.655290  -3.108439  3.626542
H    0.527252  -3.363155  4.993253
Pb    -2.951687  -1.859935  6.703152
