24
Energy: -614515.8495902  eV PBE+vdW (tier 2 basis)
C    -0.725710  0.963796  0.535157
C    -0.414187  0.560693  1.932675
O    0.799315  0.621759  2.347251
H    -1.789203  0.872419  0.292938
H    -0.138815  0.347126  -0.160060
H    -0.403302  2.003998  0.384041
N    -1.400600  0.148870  2.732038
C    -1.247804  -0.099707  4.160693
C    -0.343271  -1.321542  4.414480
O    0.836990  -1.109481  4.889000
H    -2.376865  0.358143  2.461181
H    -0.693877  0.746774  4.599302
C    -2.627750  -0.156330  4.885670
S    -3.809211  1.073510  4.216249
H    -2.455443  0.060419  5.945699
H    -3.089411  -1.143829  4.825166
H    -4.736008  0.181463  3.796144
N    -0.709788  -2.565765  4.180440
C    -1.949655  -3.107985  3.614489
H    -0.000406  -3.257012  4.435354
H    -1.685237  -3.971342  2.994236
H    -2.449997  -2.370416  2.982527
H    -2.621319  -3.447462  4.413666
Pb    2.300554  0.326901  3.977664
