24
Energy: -614515.9764581  eV PBE+vdW (tier 2 basis)
C    -0.126116  0.247213  -0.103620
C    -0.117191  0.001314  1.366541
O    0.897935  -0.576421  1.884804
H    -1.044677  0.723170  -0.461838
H    0.011770  -0.712528  -0.622155
H    0.737134  0.873456  -0.369348
N    -1.179227  0.381182  2.085520
C    -1.487912  0.146958  3.512219
C    -0.619614  1.013863  4.435692
O    0.613245  0.735533  4.651462
H    -1.928865  0.814685  1.551555
H    -2.527858  0.481183  3.620677
C    -1.483080  -1.340346  3.934328
S    -2.682614  -2.376501  3.060894
H    -1.776875  -1.391555  4.992194
H    -0.480134  -1.805882  3.868626
H    -2.059200  -2.378818  1.858435
N    -1.193791  2.029569  5.050141
C    -0.548061  2.939320  6.001678
H    -2.177233  2.205258  4.850981
H    0.459432  2.582526  6.223359
H    -1.144272  2.973070  6.921006
H    -0.500923  3.946062  5.567919
Pb    2.035118  -0.771304  3.796935
