24
Energy: -614515.3538022  eV PBE+vdW (tier 2 basis)
C    -1.227881  1.342653  -0.231569
C    -0.162705  1.002104  0.747685
O    1.041733  1.392919  0.528974
H    -2.182647  1.571622  0.251381
H    -1.381739  0.501062  -0.928326
H    -0.892985  2.197189  -0.830168
N    -0.395549  0.289735  1.870008
C    -1.168292  -0.960955  1.954323
C    -0.439281  -2.011174  1.062864
O    0.731331  -1.758505  0.575816
H    0.371811  0.340341  2.540679
H    -1.037387  -1.291272  2.998050
C    -2.685851  -0.808664  1.712104
S    -3.568597  -2.232137  2.475986
H    -2.929875  -0.765519  0.645678
H    -3.016140  0.118886  2.195325
H    -4.596823  -2.257783  1.595866
N    -1.034029  -3.159143  0.858098
C    -0.514861  -4.294220  0.095834
H    -1.971058  -3.253104  1.308960
H    -1.209429  -4.528021  -0.720211
H    -0.446122  -5.165669  0.758910
H    0.470225  -4.058094  -0.310510
Pb    2.463734  -0.350964  0.254155
