24
Energy: -614516.7679789  eV PBE+vdW (tier 2 basis)
C    -0.822965  0.447090  -0.370443
C    -0.478858  0.544184  1.080517
O    0.735818  0.504357  1.427921
H    -0.363026  1.296801  -0.895496
H    -1.899420  0.442749  -0.570608
H    -0.369170  -0.461830  -0.787507
N    -1.497842  0.683348  1.953501
C    -1.491020  0.876079  3.416702
C    -0.561927  2.008197  3.901564
O    0.666082  1.812164  4.166417
H    -2.421398  0.706323  1.528441
H    -2.514609  1.214334  3.637881
C    -1.367956  -0.418207  4.249841
S    0.101370  -1.513827  4.125896
H    -2.227670  -1.067399  4.039201
H    -1.417059  -0.161775  5.317252
H    -0.149276  -2.032605  2.896393
N    -1.118587  3.192241  4.096961
C    -0.425492  4.387840  4.586267
H    -2.116097  3.287899  3.917566
H    0.643166  4.180757  4.667476
H    -0.824220  4.662273  5.570827
H    -0.597473  5.213937  3.886433
Pb    2.118627  0.313071  3.242997
