24
Energy: -614515.8511017  eV PBE+vdW (tier 2 basis)
C    -0.332791  -0.647389  0.170189
C    -0.274652  -0.024084  1.520703
O    0.860217  0.131578  2.089371
H    -1.352079  -0.749625  -0.216326
H    0.149710  -1.633814  0.201600
H    0.255903  -0.029889  -0.524439
N    -1.409329  0.382355  2.104257
C    -1.493673  1.146175  3.355396
C    -1.292616  0.202288  4.569304
O    -0.092334  0.086100  5.029825
H    -2.272740  0.242635  1.582025
H    -0.612894  1.806514  3.388717
C    -2.718546  2.064738  3.356712
S    -2.717067  2.966554  4.949890
H    -3.651949  1.504657  3.224619
H    -2.613203  2.767068  2.519196
H    -3.867163  3.643305  4.725504
N    -2.237635  -0.521286  5.129719
C    -3.683430  -0.555972  4.887076
H    -1.902297  -1.091061  5.909534
H    -3.902863  -0.663002  3.819813
H    -4.154096  0.350743  5.291430
H    -4.085283  -1.429777  5.406936
Pb    1.912811  0.282191  4.064952
