24
Energy: -614514.6333583  eV PBE+vdW (tier 2 basis)
C    -0.637391  0.659356  0.025309
C    -0.399966  0.461377  1.480114
O    0.334763  1.362659  2.112217
H    -1.039251  1.667082  -0.147361
H    -1.332166  -0.075039  -0.391631
H    0.317585  0.591533  -0.516008
N    -0.860071  -0.529877  2.184563
C    -1.698985  -1.670672  1.822444
C    -2.215921  -2.101149  3.237524
O    -1.612502  -1.631772  4.219465
H    -0.743762  -0.615088  3.245934
H    -2.524689  -1.359207  1.169614
C    -0.847859  -2.779003  1.122750
S    -1.815943  -4.185970  0.503465
H    -0.058366  -3.131816  1.796205
H    -0.366796  -2.344840  0.236695
H    -1.671176  -4.977468  1.592756
N    -3.253495  -2.931971  3.283401
C    -3.840770  -3.437948  4.525203
H    -3.638874  -3.261422  2.400433
H    -4.914301  -3.218000  4.540790
H    -3.352027  -2.947078  5.370314
H    -3.694645  -4.522576  4.599276
Pb    1.402085  2.905074  3.062477
