24
Energy: -614515.6710435  eV PBE+vdW (tier 2 basis)
C    -3.073313  0.437541  -0.965357
C    -2.133910  1.092958  -0.032794
O    -2.268444  2.252599  0.380213
H    -3.338622  -0.576750  -0.634437
H    -2.565738  0.313523  -1.939908
H    -3.970782  1.046741  -1.108157
N    -0.925948  0.420687  0.410153
C    -1.088692  -0.570812  1.512796
C    -1.170063  0.133564  2.868065
O    -0.646844  1.293654  3.019820
H    -0.478766  -0.155668  -0.353399
H    -2.000327  -1.163211  1.343869
C    0.144240  -1.529561  1.492381
S    0.633176  -2.057235  -0.176376
H    -0.055547  -2.398270  2.129441
H    1.027328  -1.018771  1.900590
H    -0.385544  -2.928915  -0.384890
N    -1.713923  -0.462936  3.910960
C    -2.320944  -1.792273  4.025953
H    -1.656817  0.080741  4.775697
H    -2.605456  -2.185582  3.046112
H    -3.221246  -1.710959  4.644528
H    -1.620176  -2.485387  4.509088
Pb    -0.082804  2.670380  1.331773
