24
Energy: -614516.6518711  eV PBE+vdW (tier 2 basis)
C    0.175446  0.852127  0.510546
C    -0.215212  0.135727  1.760137
O    0.616432  0.042638  2.711392
H    0.429474  1.892209  0.758014
H    -0.596598  0.840789  -0.265584
H    1.091804  0.390389  0.115924
N    -1.441841  -0.414700  1.813523
C    -2.054632  -1.279634  2.840028
C    -2.541865  -0.466587  4.047878
O    -1.735723  0.229649  4.743343
H    -2.017421  -0.265314  0.988599
H    -2.942525  -1.677921  2.333244
C    -1.246542  -2.556038  3.196651
S    0.012333  -2.613196  4.541924
H    -0.692837  -2.877763  2.305372
H    -1.947561  -3.363194  3.442146
H    -0.832204  -2.775058  5.593228
N    -3.825909  -0.487014  4.370112
C    -4.944653  -1.164168  3.696372
H    -4.058064  0.081573  5.186723
H    -5.851131  -0.959562  4.272745
H    -4.799795  -2.250752  3.672252
H    -5.093662  -0.772666  2.682339
Pb    0.549691  0.148467  4.985096
