24
Energy: -614515.8881376  eV PBE+vdW (tier 2 basis)
C    -0.111326  0.496481  -0.020695
C    -0.161938  0.410086  1.464635
O    0.804315  0.889951  2.152188
H    -0.977879  0.040389  -0.510463
H    0.809502  0.019653  -0.383423
H    -0.051953  1.556795  -0.307754
N    -1.224360  -0.150090  2.055893
C    -1.482383  -0.157244  3.505669
C    -0.578235  -1.194914  4.216576
O    0.509505  -0.759280  4.759090
H    -1.965441  -0.489959  1.445135
H    -1.125447  0.807425  3.896056
C    -2.982483  -0.226958  3.825258
S    -3.271663  -0.429560  5.613810
H    -3.473870  -1.079804  3.341928
H    -3.474509  0.680068  3.452874
H    -3.060052  0.863248  5.956557
N    -0.800187  -2.491979  4.244987
C    -1.937255  -3.276370  3.755506
H    -0.089296  -3.014683  4.761029
H    -2.279812  -2.913657  2.782184
H    -2.759985  -3.260382  4.482690
H    -1.600150  -4.309972  3.633329
Pb    1.929901  0.824755  4.092941
