24
Energy: -614515.2298080  eV PBE+vdW (tier 2 basis)
C    -0.322950  0.018250  -0.186950
C    -0.209938  0.129939  1.287473
O    0.568081  1.007239  1.807923
H    -0.630286  0.974833  -0.631849
H    -0.977715  -0.793673  -0.514586
H    0.692606  -0.176462  -0.571583
N    -0.901325  -0.684307  2.114766
C    -2.352253  -0.912243  2.008223
C    -3.022246  0.471591  2.083745
O    -2.449745  1.415506  2.763446
H    -0.556816  -0.691627  3.077396
H    -2.586567  -1.402065  1.055921
C    -2.759326  -1.853506  3.178703
S    -4.500658  -2.348085  3.255896
H    -2.456650  -1.410970  4.138326
H    -2.184828  -2.780807  3.046232
H    -4.924709  -1.321631  4.030093
N    -4.169659  0.732814  1.496509
C    -5.013749  -0.092717  0.623435
H    -4.511698  1.683352  1.659901
H    -5.153570  0.440242  -0.325237
H    -5.988290  -0.243889  1.101005
H    -4.565627  -1.071272  0.446584
Pb    -0.477946  2.406619  3.264224
