24
Energy: -614515.9532487  eV PBE+vdW (tier 2 basis)
C    0.100610  -1.060990  0.681047
C    -0.375291  -0.016309  1.628570
O    0.463263  0.508839  2.448263
H    0.898884  -0.633179  0.057097
H    -0.695763  -1.446322  0.036473
H    0.551041  -1.888847  1.245646
N    -1.650951  0.361859  1.592723
C    -2.252629  1.457006  2.339256
C    -2.430004  1.065762  3.822680
O    -1.516702  1.449912  4.648717
H    -2.300614  -0.046174  0.892623
H    -1.527052  2.283420  2.378897
C    -3.511880  2.015820  1.588701
S    -4.320746  0.884845  0.401691
H    -3.212252  2.916158  1.044578
H    -4.268622  2.331176  2.315112
H    -3.750274  1.391675  -0.716904
N    -3.441727  0.370790  4.299486
C    -4.602393  -0.216077  3.621300
H    -3.396551  0.225867  5.310804
H    -4.928228  -1.081061  4.207272
H    -4.339398  -0.559774  2.616158
H    -5.430534  0.502707  3.571075
Pb    0.708111  1.578331  4.387768
