24
Energy: -614516.0267168  eV PBE+vdW (tier 2 basis)
C    -0.077623  0.138026  -0.128429
C    -0.055733  0.096510  1.361415
O    1.068057  -0.070613  1.951409
H    -1.074690  0.308937  -0.547076
H    0.312663  -0.817936  -0.508290
H    0.607907  0.920397  -0.481417
N    -1.210734  0.221122  2.024056
C    -1.507348  0.041830  3.467856
C    -0.936355  1.189303  4.322149
O    0.319182  1.286167  4.570020
H    -2.028408  0.348756  1.431409
H    -2.601219  0.114899  3.528242
C    -1.126287  -1.348369  4.013557
S    -1.419924  -1.477653  5.807464
H    -0.063943  -1.580086  3.861155
H    -1.679664  -2.119981  3.465020
H    -2.747341  -1.734929  5.731732
N    -1.776580  2.088314  4.788338
C    -1.435387  3.232603  5.636807
H    -2.767388  1.940824  4.605090
H    -1.811344  3.054079  6.652612
H    -1.911729  4.131868  5.230162
H    -0.352050  3.361495  5.662942
Pb    2.211941  0.416436  3.794780
