30
Energy: -244756.8991256  eV PBE+vdW (tier 2 basis)
C    2.169735  0.348235  1.833444
C    0.888489  -0.097527  2.473800
O    0.890584  -0.552659  3.643730
H    2.614883  1.139317  2.452172
H    2.878086  -0.490822  1.831387
H    2.052895  0.719692  0.810184
N    -0.232529  0.026927  1.728665
C    -1.659004  -0.256594  2.005355
C    -2.113183  0.162163  3.423234
O    -1.898080  -0.541107  4.443118
H    -0.073955  0.410691  0.801104
H    -2.183755  0.406644  1.304123
C    -2.109912  -1.692123  1.591193
C    -1.765223  -2.795352  2.533980
N    -2.696945  -3.425941  3.330343
C    -0.552606  -3.324685  2.934655
C    -2.043045  -4.256822  4.191202
N    -0.728894  -4.201074  3.993810
H    -1.674352  -1.892783  0.601809
H    -3.197998  -1.659517  1.437152
H    -3.706215  -3.318513  3.267258
H    0.427840  -3.152218  2.500707
H    -2.553561  -4.892295  4.908646
N    -2.796920  1.304762  3.486043
C    -3.344631  1.878065  4.714683
H    -2.933471  1.832641  2.628811
H    -4.296074  2.368007  4.485175
H    -2.653546  2.620173  5.135611
H    -3.510943  1.080158  5.442936
Ba    -0.033670  -1.901443  5.497670
