30
Energy: -244756.8993746  eV PBE+vdW (tier 2 basis)
C    1.885480  1.023445  1.766336
C    0.686001  0.455083  2.465756
O    0.754629  0.129187  3.676101
H    2.721434  0.318038  1.861373
H    1.722401  1.244494  0.706498
H    2.187276  1.946221  2.280577
N    -0.438811  0.330004  1.726454
C    -1.806592  -0.135461  2.049189
C    -2.324790  0.358755  3.419968
O    -2.007266  -0.189165  4.506125
H    -0.337293  0.635483  0.762480
H    -2.423258  0.361797  1.287968
C    -2.032517  -1.658529  1.795259
C    -1.530238  -2.590048  2.846433
N    -2.360651  -3.264375  3.715775
C    -0.253892  -2.886573  3.287072
C    -1.593582  -3.891685  4.652330
N    -0.301746  -3.661660  4.435033
H    -1.565640  -1.895864  0.828578
H    -3.112093  -1.807507  1.650546
H    -3.374206  -3.316816  3.652560
H    0.691684  -2.616882  2.826130
H    -2.006601  -4.516582  5.438379
N    -3.176641  1.382924  3.369494
C    -3.808740  1.995524  4.537181
H    -3.389973  1.788242  2.462645
H    -4.822623  2.309270  4.269152
H    -3.238944  2.874031  4.867639
H    -3.855271  1.264534  5.348563
Ba    0.036466  -1.134883  5.675407
