30
Energy: -244756.1335320  eV PBE+vdW (tier 2 basis)
C    -0.646065  1.010706  0.860742
C    -0.209660  -0.336693  1.339812
O    1.021435  -0.674816  1.240464
H    -0.484923  1.099591  -0.222187
H    -0.008999  1.765708  1.341487
H    -1.691161  1.241040  1.084497
N    -1.075928  -1.183305  1.888907
C    -2.520697  -1.274374  1.664934
C    -2.979420  -2.448650  2.559756
O    -2.200603  -3.407907  2.696259
H    -0.711258  -2.076917  2.247915
H    -3.019542  -0.335771  1.928016
C    -2.830257  -1.640376  0.155260
C    -1.715632  -2.440319  -0.434816
N    -1.372513  -3.710958  -0.022504
C    -0.663344  -2.036626  -1.230313
C    -0.155479  -4.019456  -0.519949
N    0.322304  -3.012481  -1.261983
H    -2.936559  -0.717345  -0.427588
H    -3.795300  -2.162451  0.101661
H    -1.873882  -4.245887  0.689649
H    -0.575823  -1.112947  -1.795261
H    0.326969  -4.978374  -0.357388
N    -4.210682  -2.408548  3.082554
C    -5.187011  -1.318928  3.022233
H    -4.456526  -3.234606  3.625189
H    -4.833360  -0.426762  3.555708
H    -6.103341  -1.659849  3.511911
H    -5.444182  -1.058086  1.987678
Ba    2.503443  -1.828616  -0.280642
