30
Energy: -244756.0957321  eV PBE+vdW (tier 2 basis)
C    -1.550623  -2.112876  -0.819508
C    -0.997967  -1.482040  0.419364
O    0.121042  -1.851733  0.888790
H    -1.554045  -3.204865  -0.714691
H    -0.876798  -1.875440  -1.655811
H    -2.559249  -1.770130  -1.072856
N    -1.715899  -0.511304  1.002826
C    -1.297342  0.407858  2.074588
C    -1.445010  -0.265316  3.460968
O    -0.818814  -1.355723  3.677320
H    -2.606821  -0.287922  0.564126
H    -0.213119  0.569606  1.955969
C    -2.051627  1.744662  1.812295
C    -1.938528  2.817534  2.839915
N    -0.782680  3.511402  3.150765
C    -2.894348  3.324560  3.706639
C    -1.093813  4.389999  4.158840
N    -2.354818  4.287880  4.520939
H    -3.125483  1.523727  1.703138
H    -1.710882  2.101198  0.826848
H    0.099007  3.480662  2.649373
H    -3.952810  3.074422  3.747629
H    -0.363380  5.075555  4.577734
N    -2.173215  0.307314  4.393184
C    -2.344751  -0.220691  5.746513
H    -2.521190  1.260717  4.198814
H    -1.391951  -0.208471  6.291295
H    -2.725527  -1.247270  5.708847
H    -3.063342  0.414731  6.270861
Ba    0.934983  -2.854048  2.942287
