30
Energy: -244756.8127744  eV PBE+vdW (tier 2 basis)
C    -0.428129  0.341617  0.399612
C    -0.253722  0.240479  1.885134
O    0.848596  0.516761  2.420354
H    -1.442596  0.117453  0.053989
H    0.275063  -0.345553  -0.090386
H    -0.155422  1.356399  0.080592
N    -1.331045  -0.154309  2.599715
C    -1.510729  -0.317403  4.056612
C    -0.780277  0.778812  4.863713
O    0.389886  0.621388  5.304850
H    -2.162865  -0.354232  2.050654
H    -2.584828  -0.146065  4.205872
C    -1.275933  -1.768115  4.569268
C    0.138718  -2.222544  4.707692
N    0.734417  -2.460071  5.926955
C    1.157918  -2.390213  3.786565
C    2.060067  -2.710722  5.723423
N    2.357938  -2.652977  4.428706
H    -1.818688  -2.438251  3.886444
H    -1.788391  -1.855612  5.537928
H    0.264083  -2.465184  6.828753
H    1.090033  -2.376860  2.702806
H    2.748993  -2.956018  6.526268
N    -1.452668  1.902998  5.110718
C    -2.811640  2.274116  4.702546
H    -0.941706  2.577460  5.679146
H    -2.970727  3.320687  4.976858
H    -3.567192  1.670478  5.222417
H    -2.939408  2.187797  3.617240
Ba    2.604254  0.168684  4.148557
