30
Energy: -244756.0952530  eV PBE+vdW (tier 2 basis)
C    -1.527995  -2.177045  -0.614495
C    -0.939181  -1.475357  0.568508
O    0.224962  -1.766219  0.979877
H    -2.574621  -1.915247  -0.802003
H    -1.441802  -3.263167  -0.488538
H    -0.934560  -1.911267  -1.501792
N    -1.674837  -0.525070  1.163498
C    -1.245120  0.456540  2.173894
C    -1.272432  -0.168905  3.590064
O    -0.579097  -1.218352  3.804006
H    -2.601739  -0.367354  0.773677
H    -0.180857  0.672145  1.982763
C    -2.089329  1.738102  1.910558
C    -1.972540  2.860584  2.883358
N    -0.844910  3.637282  3.082085
C    -2.899477  3.352009  3.789467
C    -1.144263  4.544511  4.068044
N    -2.369711  4.385038  4.520143
H    -3.153484  1.454104  1.882976
H    -1.834437  2.069161  0.890951
H    0.002438  3.634120  2.523850
H    -3.935262  3.041586  3.913734
H    -0.432885  5.292733  4.404301
N    -1.972674  0.403348  4.543841
C    -2.042138  -0.077848  5.923486
H    -2.377069  1.331567  4.336871
H    -2.249437  -1.152748  5.939726
H    -2.849497  0.457550  6.430517
H    -1.099230  0.118510  6.450709
Ba    1.209180  -2.647310  3.014924
