30
Energy: -244756.1712642  eV PBE+vdW (tier 2 basis)
C    1.214013  0.646718  1.788691
C    -0.118926  1.261652  2.092359
O    -0.243856  2.272468  2.810664
H    1.885445  1.428015  1.409879
H    1.171007  -0.178217  1.069594
H    1.656060  0.280752  2.725547
N    -1.218323  0.674566  1.542571
C    -2.587033  1.169373  1.688127
C    -2.695686  2.686496  1.429122
O    -3.284396  3.454322  2.252021
H    -1.085857  -0.159746  0.979135
H    -3.139125  0.703263  0.855787
C    -3.323499  0.670577  2.963981
C    -3.169091  1.389182  4.268749
N    -2.014832  1.970349  4.735930
C    -4.108848  1.599540  5.278950
C    -2.275922  2.501752  5.971897
N    -3.546119  2.307087  6.325730
H    -3.020048  -0.379293  3.100493
H    -4.399106  0.634314  2.744073
H    -1.153769  2.081040  4.138491
H    -5.132845  1.236539  5.326266
H    -1.514653  2.984047  6.579944
N    -2.244534  3.181491  0.282822
C    -1.625936  2.501244  -0.855928
H    -2.360030  4.190049  0.195385
H    -2.079279  1.518586  -1.022878
H    -0.543864  2.390071  -0.713432
H    -1.802276  3.110102  -1.747902
Ba    -3.997669  4.354660  4.411933
