30
Energy: -244756.0709975  eV PBE+vdW (tier 2 basis)
C    -2.250225  -0.400563  -0.304972
C    -1.599519  -0.711102  1.010793
O    -0.566103  -1.356955  1.152084
H    -1.782799  0.501649  -0.726717
H    -3.328158  -0.218639  -0.220095
H    -2.064344  -1.222457  -1.003544
N    -2.235378  -0.228181  2.160952
C    -1.456135  -0.287557  3.378169
C    -1.226622  -1.749801  3.810449
O    -0.171934  -2.067985  4.452570
H    -2.956829  0.482116  2.069222
H    -0.440537  0.095777  3.183430
C    -2.088712  0.569880  4.511079
C    -1.235537  0.477161  5.733357
N    -1.589204  -0.208013  6.872959
C    0.104124  0.772341  5.908126
C    -0.489571  -0.343527  7.664717
N    0.570928  0.227538  7.095616
H    -3.115713  0.240343  4.722335
H    -2.147243  1.611300  4.163146
H    -2.526010  -0.528375  7.107065
H    0.736829  1.388638  5.272197
H    -0.510885  -0.823673  8.638196
N    -2.183868  -2.619785  3.551319
C    -2.128563  -4.053044  3.822201
H    -2.937579  -2.267093  2.960826
H    -3.148599  -4.433040  3.932647
H    -1.572724  -4.235603  4.746065
H    -1.637502  -4.579090  2.992328
Ba    1.901410  -1.616258  5.584482
