30
Energy: -244756.1009409  eV PBE+vdW (tier 2 basis)
C    -0.623992  -0.597152  -0.319071
C    -0.578750  -0.615166  1.172634
O    0.294721  -1.300284  1.790982
H    -1.503997  -0.083515  -0.719548
H    -0.587821  -1.621729  -0.708288
H    0.277807  -0.081087  -0.682329
N    -1.463057  0.131586  1.846171
C    -1.406412  0.429577  3.286274
C    -1.980840  -0.745738  4.106668
O    -1.223614  -1.729416  4.371897
H    -2.069794  0.732185  1.291012
H    -0.342946  0.476499  3.568737
C    -2.033608  1.803468  3.560424
C    -1.275842  2.890305  2.862602
N    -1.737761  4.189076  2.764138
C    -0.042814  2.913420  2.234386
C    -0.783610  4.915232  2.103334
N    0.248534  4.167908  1.768155
H    -2.042113  1.960560  4.652104
H    -3.092205  1.809312  3.235326
H    -2.607558  4.556788  3.136381
H    0.662669  2.098854  2.092469
H    -0.899404  5.974346  1.895968
N    -3.239714  -0.695945  4.507194
C    -3.928257  -1.723375  5.288985
H    -3.776941  0.131441  4.258867
H    -4.457607  -1.246708  6.121384
H    -3.194539  -2.431888  5.679274
H    -4.654471  -2.252303  4.658842
Ba    0.867936  -2.768249  3.614030
