30
Energy: -244756.2761666  eV PBE+vdW (tier 2 basis)
C    -3.685209  -0.197706  1.054966
C    -2.762683  -0.520451  2.191305
O    -3.175296  -0.834620  3.319404
H    -4.191381  0.753173  1.274422
H    -4.466451  -0.965662  1.001179
H    -3.183421  -0.114243  0.084970
N    -1.416074  -0.483003  1.932435
C    -0.384282  -0.677095  2.948379
C    -0.491988  -2.068688  3.611594
O    -0.159192  -2.255162  4.820552
H    -1.114695  -0.142398  1.024045
H    0.556332  -0.729929  2.377632
C    -0.185433  0.529807  3.923610
C    -0.827510  0.522877  5.272718
N    -2.123188  0.151955  5.527763
C    -0.301308  0.872057  6.515652
C    -2.343661  0.267152  6.872470
N    -1.250106  0.691161  7.508636
H    -0.507757  1.426631  3.373048
H    0.891461  0.662212  4.087580
H    -2.750682  -0.207557  4.765525
H    0.676254  1.296190  6.734309
H    -3.307923  0.070428  7.333733
N    -0.855464  -3.074051  2.832113
C    -0.948134  -4.467328  3.260637
H    -1.135798  -2.843947  1.881973
H    -0.058790  -4.744168  3.836655
H    -1.007114  -5.101369  2.371967
H    -1.848467  -4.627948  3.868724
Ba    -0.250043  -1.900317  7.244001
