30
Energy: -244756.1241981  eV PBE+vdW (tier 2 basis)
C    -1.116859  -2.125566  -0.686144
C    -0.766596  -1.415172  0.580539
O    0.301587  -1.690938  1.206354
H    -2.080190  -1.818956  -1.106489
H    -1.127343  -3.209037  -0.510601
H    -0.326730  -1.929174  -1.424901
N    -1.602269  -0.467846  1.033400
C    -1.337861  0.430223  2.166312
C    -1.656251  -0.291031  3.498055
O    -0.797871  -1.106648  3.960981
H    -2.444993  -0.293100  0.490545
H    -0.251767  0.605503  2.189588
C    -2.027758  1.779597  1.929838
C    -1.643816  2.791350  2.962615
N    -2.084496  4.100413  2.937880
C    -0.826402  2.724161  4.076500
C    -1.523861  4.743582  4.009000
N    -0.760933  3.934260  4.715618
H    -3.125913  1.644738  1.871099
H    -1.726145  2.118935  0.924280
H    -2.691193  4.525051  2.243394
H    -0.276829  1.870425  4.465442
H    -1.709034  5.792218  4.219112
N    -2.805846  -0.058338  4.100830
C    -3.228020  -0.635062  5.376320
H    -3.389844  0.680562  3.716284
H    -3.062519  0.089691  6.184781
H    -2.652707  -1.541808  5.574521
H    -4.294601  -0.877594  5.324182
Ba    1.297062  -2.209438  3.357661
