30
Energy: -244756.9009211  eV PBE+vdW (tier 2 basis)
C    0.220409  0.245872  0.515373
C    -0.077977  -0.318928  1.872709
O    0.849792  -0.511133  2.696399
H    0.666234  1.242324  0.640470
H    -0.655115  0.328626  -0.136874
H    0.975877  -0.381897  0.025284
N    -1.375149  -0.588428  2.140869
C    -2.065793  -1.100220  3.345933
C    -1.540844  -0.495367  4.668765
O    -0.495054  -0.899149  5.238034
H    -2.009373  -0.381719  1.374078
H    -3.091165  -0.726127  3.221343
C    -2.220909  -2.653241  3.373771
C    -1.027114  -3.433243  3.810911
N    -0.937766  -4.051081  5.039846
C    0.221861  -3.607374  3.244412
C    0.330646  -4.525957  5.197239
N    1.073482  -4.250481  4.128824
H    -2.523033  -2.963847  2.363283
H    -3.075919  -2.883502  4.025366
H    -1.696865  -4.166341  5.706654
H    0.544080  -3.339433  2.242482
H    0.654055  -5.080525  6.073002
N    -2.302681  0.459920  5.201103
C    -2.005097  1.141672  6.460591
H    -3.132529  0.756343  4.695909
H    -1.329899  1.991303  6.292882
H    -1.536916  0.438510  7.155824
H    -2.941266  1.510398  6.889994
Ba    1.880027  -1.587974  4.668521
