30
Energy: -244756.1902565  eV PBE+vdW (tier 2 basis)
C    -0.865209  -0.001597  0.303236
C    -0.572883  0.195569  1.755055
O    0.528715  0.701184  2.133620
H    -1.820876  -0.502255  0.116858
H    -0.056562  -0.581714  -0.159595
H    -0.875153  0.981209  -0.189471
N    -1.504446  -0.158280  2.651574
C    -1.398454  0.055562  4.099340
C    -0.441576  -0.992339  4.711165
O    0.786235  -0.677498  4.846703
H    -2.347961  -0.626033  2.318995
H    -0.888534  1.018223  4.245699
C    -2.808547  0.177872  4.745036
C    -3.765115  -0.933222  4.461604
N    -4.557040  -0.994801  3.318150
C    -4.058642  -2.101595  5.144599
C    -5.285157  -2.160203  3.390668
N    -4.986412  -2.852918  4.466472
H    -3.225435  1.142002  4.417522
H    -2.667664  0.265076  5.830932
H    -4.778113  -0.214234  2.705604
H    -3.699344  -2.407270  6.125442
H    -6.013373  -2.437793  2.634398
N    -0.916077  -2.176885  5.037032
C    -0.141884  -3.272758  5.617488
H    -1.924796  -2.327747  4.887103
H    -0.750154  -3.766452  6.382788
H    0.771152  -2.880422  6.072201
H    0.115186  -4.008690  4.844353
Ba    2.427119  0.672007  3.655428
