30
Energy: -244756.2762374  eV PBE+vdW (tier 2 basis)
C    -3.676178  -0.400017  1.026208
C    -2.745900  -0.671784  2.169678
O    -3.149914  -0.943581  3.311726
H    -3.177794  -0.338770  0.052734
H    -4.198044  0.548552  1.217183
H    -4.444685  -1.182295  0.997971
N    -1.401019  -0.636778  1.901798
C    -0.363201  -0.787465  2.918884
C    -0.461006  -2.154142  3.633674
O    -0.127315  -2.294041  4.848478
H    -1.106395  -0.330740  0.979049
H    0.574723  -0.857371  2.345610
C    -0.165125  0.456555  3.846513
C    -0.799589  0.499125  5.198592
N    -2.093318  0.136484  5.475068
C    -0.267038  0.897028  6.424084
C    -2.306368  0.303859  6.815798
N    -1.209917  0.753644  7.428680
H    -0.494911  1.330125  3.263792
H    0.912050  0.600265  3.999274
H    -2.723603  -0.254514  4.731149
H    0.711200  1.330706  6.619863
H    -3.267625  0.124489  7.290237
N    -0.816313  -3.190284  2.891470
C    -0.894566  -4.568154  3.370787
H    -1.098065  -2.997765  1.933488
H    0.002223  -4.817361  3.948004
H    -0.956533  -5.234056  2.505886
H    -1.787994  -4.713451  3.992613
Ba    -0.209782  -1.846261  7.256710
