30
Energy: -244756.0708307  eV PBE+vdW (tier 2 basis)
C    -0.676414  -1.767555  1.588192
C    -0.387966  -0.324487  1.836974
O    0.819651  0.056547  2.013817
H    -0.595909  -1.995945  0.516391
H    -1.675397  -2.063121  1.919991
H    0.075315  -2.360171  2.120963
N    -1.352757  0.604588  1.942525
C    -2.643081  0.791448  1.237024
C    -3.213397  -0.481222  0.567902
O    -2.773604  -0.885799  -0.519637
H    -0.960354  1.503131  2.227071
H    -3.361334  1.164964  1.979369
C    -2.420887  1.921774  0.164912
C    -1.095243  1.783406  -0.508009
N    -0.786045  0.719565  -1.320649
C    0.100951  2.445949  -0.313307
C    0.539347  0.733185  -1.571976
N    1.127048  1.775538  -0.968592
H    -2.460788  2.897469  0.666667
H    -3.253151  1.898657  -0.551046
H    -1.478090  -0.036116  -1.475816
H    0.266452  3.387519  0.204596
H    1.034364  0.007410  -2.209875
N    -4.223128  -1.066938  1.230597
C    -4.949013  -2.234941  0.734668
H    -4.542930  -0.648348  2.098677
H    -5.999755  -1.976215  0.556225
H    -4.901024  -3.047811  1.469156
H    -4.490498  -2.557527  -0.203462
Ba    2.754636  1.140047  1.006650
