30
Energy: -244756.8996573  eV PBE+vdW (tier 2 basis)
C    2.280369  0.740182  1.435747
C    1.060683  0.350876  2.217748
O    1.173314  -0.078937  3.391828
H    2.948002  -0.128702  1.361609
H    2.066632  1.112515  0.428523
H    2.824433  1.513246  1.994956
N    -0.128373  0.495537  1.591273
C    -1.526109  0.262364  2.020078
C    -1.825887  0.746371  3.457620
O    -1.511277  0.085748  4.480055
H    -0.056223  0.854553  0.643241
H    -2.101621  0.913577  1.348183
C    -2.054053  -1.174009  1.711279
C    -1.659943  -2.248249  2.667757
N    -2.530044  -2.800238  3.583418
C    -0.435102  -2.813273  2.970017
C    -1.825383  -3.620399  4.413824
N    -0.537201  -3.632918  4.082952
H    -1.714064  -1.430278  0.697645
H    -3.150079  -1.111398  1.651977
H    -3.535503  -2.651601  3.616471
H    0.501792  -2.704187  2.431763
H    -2.284968  -4.199550  5.209079
N    -2.491880  1.897653  3.544074
C    -2.904704  2.518272  4.802460
H    -2.710973  2.396140  2.686520
H    -3.806463  3.111378  4.623447
H    -2.115002  3.176357  5.188352
H    -3.120352  1.739528  5.539511
Ba    0.404977  -1.304559  5.394595
