30
Energy: -244756.1687219  eV PBE+vdW (tier 2 basis)
C    1.289502  -0.730674  2.096488
C    0.439176  0.467176  2.403569
O    0.974204  1.495253  2.953748
H    1.703361  -1.119909  3.037090
H    0.736827  -1.533277  1.598370
H    2.136594  -0.439668  1.460558
N    -0.842331  0.394210  2.082093
C    -1.987731  1.244871  2.398780
C    -3.169246  0.212339  2.411540
O    -2.998558  -0.857310  1.823065
H    -1.223996  -0.499242  1.703881
H    -1.847436  1.711683  3.384220
C    -2.265181  2.329620  1.310149
C    -1.282451  3.445992  1.374706
N    -1.448813  4.564043  2.169026
C    0.009531  3.544360  0.909390
C    -0.289275  5.267925  2.191516
N    0.637211  4.659634  1.445962
H    -3.289585  2.705679  1.440372
H    -2.234864  1.851520  0.322203
H    -2.318292  4.858332  2.606942
H    0.510179  2.880456  0.210106
H    -0.174030  6.215684  2.708023
N    -4.299090  0.591634  3.025655
C    -5.502247  -0.241918  3.073077
H    -4.305349  1.459325  3.551106
H    -5.378082  -1.066787  2.366689
H    -6.377259  0.353834  2.790364
H    -5.649422  -0.649737  4.080768
Ba    2.484656  3.358954  2.851542
