30
Energy: -244756.1235157  eV PBE+vdW (tier 2 basis)
C    -1.138847  -2.407667  -0.440539
C    -0.757014  -1.621752  0.771326
O    0.307235  -1.886896  1.408239
H    -2.095516  -2.101903  -0.876442
H    -1.180575  -3.475440  -0.189592
H    -0.348585  -2.287789  -1.195457
N    -1.558796  -0.618972  1.161690
C    -1.256701  0.346005  2.228483
C    -1.588816  -0.271001  3.608322
O    -0.754986  -1.082124  4.121169
H    -2.400556  -0.456531  0.613627
H    -0.165299  0.485706  2.234216
C    -1.902854  1.698651  1.902995
C    -1.479642  2.766461  2.861764
N    -1.854357  4.089638  2.730308
C    -0.679028  2.745933  3.989636
C    -1.274758  4.785448  3.757269
N    -0.560266  3.997282  4.534658
H    -3.005199  1.596973  1.856711
H    -1.595320  1.958254  0.875825
H    -2.431969  4.488815  1.997062
H    -0.177439  1.899353  4.451991
H    -1.410202  5.854885  3.883783
N    -2.724067  0.044103  4.200380
C    -3.155191  -0.423720  5.516690
H    -3.285152  0.774314  3.768046
H    -4.227766  -0.642416  5.485814
H    -2.968093  0.356239  6.266962
H    -2.601835  -1.326950  5.781983
Ba    1.301595  -2.287898  3.585078
