30
Energy: -173737.226802 eV PBE+vdW (tier 2 basis)
C    0.173281  -0.163473  0.095511
C    0.088972  -0.104393  1.586986
O    1.195760  0.100183  2.210107
H    0.602849  0.779231  -0.271309
H    -0.806030  -0.322149  -0.366986
H    0.862971  -0.965176  -0.199620
N    -1.106292  -0.255696  2.152745
C    -1.472129  0.015987  3.545601
C    -1.200534  -1.199652  4.472286
O    -0.097074  -1.219902  5.139173
H    -1.969039  -0.367158  1.532713
H    -0.772097  0.772072  3.944420
C    -2.863273  0.706522  3.631103
C    -3.929068  0.288881  2.659774
N    -3.626054  -0.225006  1.414691
C    -5.301188  0.431006  2.775524
C    -4.782988  -0.394678  0.785565
N    -5.812023  -0.005433  1.580389
H    -2.663318  1.779123  3.475066
H    -3.232728  0.628750  4.663293
H    -5.931097  0.807182  3.572904
H    -4.915258  -0.784219  -0.217848
H    -6.796259  -0.019627  1.325750
N    -2.017637  -2.218487  4.650068
C    -3.333896  -2.509358  4.076107
H    -1.658503  -2.906893  5.315069
H    -3.478703  -3.593024  4.122018
H    -3.382798  -2.189967  3.032268
H    -4.127532  -2.023060  4.655950
Cd    1.558189  -0.177181  4.278050
