30
Energy: -173737.974209 eV PBE+vdW (tier 2 basis)
C    -0.461857  -1.721104  0.276244
C    -0.424868  -0.301529  0.728288
O    0.216875  0.521984  -0.045301
H    -0.915403  -1.774476  -0.722711
H    -1.014768  -2.363355  0.969178
H    0.569207  -2.089657  0.179395
N    -1.021183  0.029599  1.861619
C    -1.036656  1.275455  2.618088
C    -1.361248  0.777645  4.078697
O    -1.853552  -0.341847  4.193884
H    -1.463833  -0.708117  2.451962
H    -0.030125  1.733289  2.621907
C    -2.140017  2.293766  2.134338
C    -1.713715  3.727028  2.057182
N    -0.729100  4.153447  1.155406
C    -2.176491  4.846151  2.700169
C    -0.608854  5.482932  1.256225
N    -1.476342  5.915536  2.182762
H    -3.011477  2.216665  2.796604
H    -2.516505  1.969916  1.148615
H    -2.948682  4.969125  3.450359
H    0.064665  6.118468  0.692441
H    -1.603508  6.891055  2.447878
N    -1.124882  1.645409  5.071382
C    -1.410920  1.342194  6.478134
H    -0.629037  2.506079  4.863940
H    -1.881031  2.210191  6.952456
H    -0.486909  1.089503  7.012783
H    -2.093059  0.488978  6.518563
Cd    0.167163  2.554439  0.149501
