30
Energy: -173737.33661 eV PBE+vdW (tier 2 basis)
C    -0.128962  1.705929  0.716079
C    0.008899  0.953906  2.001545
O    1.202978  0.683861  2.379803
H    -1.170555  1.959899  0.494482
H    0.280207  1.095265  -0.100623
H    0.477677  2.619564  0.767192
N    -1.111870  0.615387  2.643320
C    -1.241007  0.097984  4.011351
C    -0.858904  -1.400442  4.122620
O    0.306975  -1.754516  4.520796
H    -1.979366  1.129505  2.329771
H    -0.527120  0.629944  4.669375
C    -2.671326  0.390429  4.547985
C    -3.178393  1.763471  4.244075
N    -3.247527  2.192832  2.935460
C    -3.729879  2.721893  5.081144
C    -3.821423  3.387785  2.969793
N    -4.128519  3.733516  4.250901
H    -2.681318  0.198320  5.627616
H    -3.385428  -0.318370  4.095790
H    -3.880845  2.754565  6.153624
H    -4.037458  4.020156  2.115341
H    -4.594821  4.589810  4.539246
N    -1.748127  -2.324927  3.824968
C    -1.508974  -3.771326  3.876949
H    -2.687181  -2.017684  3.581368
H    -1.749804  -4.157797  4.875897
H    -0.458854  -3.978571  3.654842
H    -2.153234  -4.255075  3.136837
Cd    1.907160  -0.405312  4.063453
