30
Energy: -173737.59953 eV PBE+vdW (tier 2 basis)
C    0.229970  1.211303  0.888453
C    0.122589  0.728532  2.293524
O    1.131009  0.936395  3.100339
H    -0.684602  1.048614  0.309375
H    1.052140  0.656569  0.408657
H    0.514893  2.270607  0.861654
N    -0.958651  0.071052  2.669942
C    -1.223759  -0.793477  3.822349
C    -2.591527  -1.449596  3.423232
O    -3.254848  -0.898612  2.539471
H    -1.785751  -0.000385  2.034585
H    -0.433009  -1.558267  3.869731
C    -1.297532  -0.135311  5.234492
C    -2.005858  1.173784  5.389546
N    -1.300827  2.381566  5.422529
C    -3.326606  1.476626  5.602638
C    -2.171379  3.375621  5.640432
N    -3.397644  2.843418  5.753549
H    -0.273463  -0.034606  5.638843
H    -1.764291  -0.870587  5.904248
H    -4.201457  0.841509  5.671149
H    -1.943079  4.431555  5.728632
H    -4.245787  3.374243  5.945572
N    -2.947649  -2.552676  4.094071
C    -4.184310  -3.291070  3.819844
H    -2.272253  -2.992234  4.712627
H    -3.966281  -4.204129  3.251888
H    -4.848014  -2.653642  3.230009
H    -4.669385  -3.560238  4.764351
Cd    0.668364  2.196436  4.671271
