30
Energy: -173737.456079 eV PBE+vdW (tier 2 basis)
C    0.813743  1.979162  1.223903
C    0.649622  1.063847  2.408826
O    1.825785  0.802876  2.972373
H    -0.148954  2.153949  0.733501
H    1.511789  1.535776  0.502720
H    1.255599  2.931859  1.546684
N    -0.555070  0.681318  2.734555
C    -0.868901  -0.060064  3.948948
C    -0.695158  -1.585292  3.770098
O    0.381890  -2.178088  4.149587
H    -1.876098  2.413924  2.706048
H    -0.201905  0.200078  4.803186
C    -2.311315  0.303823  4.397531
C    -2.533824  1.765316  4.598644
N    -2.322776  2.689946  3.586967
C    -3.036795  2.477155  5.657987
C    -2.667878  3.913636  3.994834
N    -3.107534  3.795222  5.253823
H    -2.566443  -0.224424  5.325024
H    -3.022627  -0.028643  3.624187
H    -3.360495  2.157869  6.640577
H    -2.605319  4.830596  3.420802
H    -3.453387  4.568543  5.817993
N    -1.643199  -2.304494  3.204719
C    -1.539074  -3.744982  2.939555
H    -2.495273  -1.832039  2.917909
H    -1.525618  -4.305112  3.882131
H    -0.619433  -3.958314  2.383399
H    -2.405640  -4.048161  2.347069
Cd    2.031286  -0.838281  4.202419
