30
Energy: -173737.16062 eV PBE+vdW (tier 2 basis)
C    0.151893  1.324518  1.538038
C    -0.386447  0.032467  2.062725
O    0.232717  -1.034797  1.745172
H    1.201618  1.422530  1.846678
H    -0.409880  2.197109  1.886640
H    0.144799  1.294217  0.440013
N    -1.468280  0.087044  2.854057
C    -2.294178  -0.999367  3.411920
C    -1.504536  -1.946239  4.336661
O    -1.040491  -3.067957  3.936224
H    -1.982708  0.970045  2.825849
H    -3.011853  -0.475541  4.056684
C    -3.153126  -1.733320  2.358441
C    -4.155444  -0.812062  1.750650
N    -4.054742  0.551985  1.887820
C    -5.305933  -1.133505  1.026874
C    -5.116244  1.055011  1.278329
N    -5.893311  0.061715  0.746831
H    -3.640269  -2.603312  2.819271
H    -2.512448  -2.169499  1.534759
H    -5.738091  -2.080356  0.723710
H    -5.369800  2.107118  1.198392
H    -6.762669  0.192585  0.234747
N    -1.355225  -1.616065  5.608022
C    -1.868984  -0.435461  6.313599
H    -0.837600  -2.300726  6.162226
H    -2.962329  -0.473023  6.405372
H    -1.558542  0.488338  5.813100
H    -1.442266  -0.438673  7.320354
Cd    -0.369631  -3.091782  1.883842
