30
Energy: -173736.775412 eV PBE+vdW (tier 2 basis)
C    -1.109255  1.544849  1.669340
C    -1.019100  0.661259  2.863546
O    -0.171100  0.951016  3.775091
H    -0.596625  2.486909  1.890591
H    -2.143784  1.735779  1.368234
H    -0.581074  1.076641  0.821987
N    -1.799705  -0.437270  3.041398
C    -2.137406  -1.506623  2.086817
C    -0.850479  -2.356946  1.839130
O    0.219603  -2.214631  2.553308
H    -1.826628  -0.743077  4.014425
H    -2.827625  -2.162125  2.640048
C    -2.895414  -1.009396  0.823565
C    -3.798932  -2.026568  0.196110
N    -3.360420  -3.279495  -0.151371
C    -5.132769  -1.890622  -0.175354
C    -4.386726  -3.901206  -0.719682
N    -5.473179  -3.083269  -0.749291
H    -2.181419  -0.641687  0.070378
H    -3.512143  -0.155827  1.129715
H    -5.833298  -1.069263  -0.080701
H    -4.386220  -4.911378  -1.114707
H    -6.382748  -3.318861  -1.138807
N    -0.883250  -3.270923  0.907272
C    0.228977  -4.176506  0.612964
H    -1.809790  -3.415256  0.384781
H    1.126715  -3.608931  0.341316
H    -0.065063  -4.810756  -0.227254
H    0.456653  -4.805968  1.482246
Cd    0.930403  -0.912656  4.103227
