30
Energy: -173737.976526 eV PBE+vdW (tier 2 basis)
C    -1.598066  -3.690358  0.405141
C    -0.788427  -2.456216  0.655559
O    0.208538  -2.207148  -0.106999
H    -1.237514  -4.494618  1.065732
H    -1.455355  -4.026348  -0.626394
H    -2.665641  -3.537129  0.603147
N    -1.014276  -1.564031  1.644385
C    -1.710595  -1.825386  2.888624
C    -3.192851  -1.476900  2.718099
O    -3.508997  -0.740044  1.690668
H    -2.666141  -0.635436  1.166899
H    -1.626606  -2.875253  3.215605
C    -1.100372  -0.877622  3.979420
C    0.362362  -1.037215  4.293454
N    1.426618  -0.703979  3.439787
C    0.907296  -1.373560  5.509046
C    2.559282  -0.853449  4.131936
N    2.270404  -1.251657  5.382033
H    -1.649024  -1.004033  4.922094
H    -1.286150  0.157529  3.651398
H    0.441414  -1.659010  6.444597
H    3.563954  -0.679202  3.763637
H    2.953871  -1.414635  6.118215
N    -4.127494  -1.851353  3.547806
C    -5.557968  -1.516308  3.456860
H    -3.840790  -2.434541  4.332605
H    -6.140507  -2.440386  3.540370
H    -5.761470  -1.030980  2.500047
H    -5.824625  -0.842199  4.279879
Cd    1.049245  -0.720759  1.297911
