30
Energy: -173737.484253 eV PBE+vdW (tier 2 basis)
C    -1.377187  -0.401171  -0.201755
C    -1.701634  -0.232288  1.253716
O    -2.290725  -1.056110  1.934723
H    -0.711144  -1.266652  -0.316933
H    -0.910816  0.479577  -0.657663
H    -2.300202  -0.643987  -0.743247
N    -1.307650  0.985240  1.847706
C    -1.473181  1.103083  3.275358
C    -2.304992  2.335142  3.659457
O    -2.202773  2.986559  4.778098
H    -0.677690  1.604959  1.346847
H    -2.161957  0.249967  3.491220
C    -0.206751  0.734937  4.107953
C    1.088643  1.462621  3.910526
N    1.403556  2.639676  4.601515
C    2.203874  1.121813  3.186202
C    2.657413  2.993982  4.297384
N    3.154276  2.086368  3.443587
H    -0.031227  -0.324306  3.873476
H    -0.463133  0.713307  5.183538
H    2.405725  0.268471  2.549859
H    3.198608  3.854955  4.672711
H    4.101259  2.100354  3.068299
N    -3.285315  2.650866  2.839944
C    -4.302437  3.679452  3.055040
H    -3.364581  2.065813  2.006789
H    -5.229286  3.213878  3.415824
H    -4.502314  4.182844  2.103414
H    -3.950649  4.399754  3.797044
Cd    -0.320037  3.410270  5.536915
