30
Energy: -173737.852531 eV PBE+vdW (tier 2 basis)
C    0.162650  -0.065132  0.035219
C    0.194562  -0.086430  1.525136
O    1.369789  -0.225379  2.062771
H    0.589769  -1.005623  -0.341137
H    0.804250  0.746724  -0.332896
H    -0.852056  0.056092  -0.357122
N    -0.940838  0.024315  2.193827
C    -1.256646  -0.118565  3.612522
C    -2.776471  -0.540886  3.560433
O    -3.384365  -0.283749  2.522416
H    -1.846325  0.071145  1.674707
H    -0.667247  -0.941299  4.053817
C    -1.099019  1.225528  4.426916
C    -0.392767  1.142796  5.746052
N    0.938978  0.722752  5.858217
C    -0.799728  1.510680  7.002572
C    1.313688  0.834264  7.139225
N    0.275363  1.309871  7.841237
H    -2.092985  1.659893  4.593202
H    -0.586471  1.960498  3.783329
H    -1.742166  1.910365  7.357626
H    2.284807  0.590952  7.555085
H    0.291194  1.503602  8.841368
N    -3.336220  -1.110085  4.638164
C    -2.735679  -1.527253  5.898120
H    -4.331076  -1.298522  4.516757
H    -2.959591  -0.817671  6.706012
H    -1.649046  -1.627345  5.803776
H    -3.133262  -2.509298  6.178151
Cd    1.743400  0.075131  4.044841
