30
Energy: -173737.712485 eV PBE+vdW (tier 2 basis)
C    -0.898924  -1.696358  0.258637
C    -1.023258  -0.619856  1.294043
O    -0.124726  -0.348457  2.096438
H    -0.084888  -1.424630  -0.427448
H    -1.814635  -1.861597  -0.319906
H    -0.601372  -2.631726  0.748114
N    -2.212365  0.088580  1.331893
C    -2.305123  1.305116  2.124653
C    -2.575622  0.988223  3.628951
O    -3.660120  1.251272  4.300714
H    -2.922284  -0.100911  0.631705
H    -1.286454  1.726616  2.153473
C    -3.171564  2.398846  1.432619
C    -4.405369  2.022053  0.659458
N    -5.635752  1.699407  1.246852
C    -4.610642  2.037015  -0.698929
C    -6.539662  1.525353  0.276164
N    -5.936627  1.726559  -0.904994
H    -2.505313  2.894649  0.714791
H    -3.411708  3.189267  2.164165
H    -3.938946  2.270945  -1.516789
H    -7.585676  1.269701  0.402387
H    -6.400380  1.676280  -1.810840
N    -1.559129  0.444820  4.246653
C    -1.514390  0.018630  5.642855
H    -0.743833  0.238981  3.618937
H    -0.969359  0.764918  6.235995
H    -0.974998  -0.932908  5.697025
H    -2.525111  -0.093258  6.042617
Cd    -5.465527  1.445345  3.330347
