30
Energy: -173738.715678 eV PBE+vdW (tier 2 basis)
C    -1.122134  -2.484242  -0.056908
C    -1.539690  -1.245584  0.673735
O    -0.990579  -0.970492  1.773433
H    -0.050590  -2.407237  -0.288305
H    -1.676037  -2.658578  -0.985200
H    -1.240495  -3.349390  0.607865
N    -2.478364  -0.470625  0.082409
C    -3.042966  0.827232  0.488871
C    -1.966796  1.871353  0.892180
O    -1.554026  2.042502  2.082066
H    -2.824699  -0.824330  -0.804657
H    -3.468611  1.220937  -0.442958
C    -4.276885  0.784736  1.470234
C    -4.453974  -0.285769  2.507140
N    -3.648046  -0.458484  3.634513
C    -5.519425  -1.144830  2.634451
C    -4.205680  -1.398244  4.400728
N    -5.341529  -1.820280  3.818734
H    -5.166218  0.724003  0.830915
H    -4.339911  1.772258  1.955100
H    -6.388865  -1.301675  2.007267
H    -3.823711  -1.771879  5.343790
H    -5.975171  -2.515164  4.207904
N    -1.517055  2.654320  -0.076442
C    -0.511344  3.704413  0.111567
H    -1.919679  2.557546  -1.004763
H    0.207753  3.391370  0.873653
H    -0.992199  4.637699  0.432057
H    0.000805  3.869288  -0.840706
Cd    -1.671886  0.340145  3.389327
