30
Energy: -173737.454599 eV PBE+vdW (tier 2 basis)
C    -0.885366  -0.204268  -0.173771
C    -1.261837  -0.082726  1.275128
O    -1.663621  -1.006786  1.966561
H    -0.446158  0.706302  -0.596878
H    -1.784856  -0.464627  -0.748119
H    -0.185336  -1.040282  -0.290671
N    -1.151407  1.195067  1.841370
C    -1.483819  1.349197  3.237606
C    -2.493500  2.480932  3.435125
O    -2.253037  3.631214  3.998657
H    -0.772343  1.960001  1.293904
H    -2.045195  0.416794  3.445497
C    -0.266355  1.241903  4.224180
C    1.067771  1.816494  3.854031
N    1.394638  3.172020  3.986433
C    2.209747  1.176974  3.441427
C    2.682605  3.338335  3.661635
N    3.188398  2.140650  3.332120
H    -0.109390  0.160875  4.341560
H    -0.564024  1.575815  5.234508
H    2.405683  0.129017  3.247387
H    3.238986  4.268557  3.666585
H    4.156941  1.973708  3.064046
N    -3.735541  2.303698  3.028189
C    -4.354215  1.130479  2.403602
H    -4.338432  3.118851  3.155269
H    -5.408399  1.109411  2.695861
H    -3.874601  0.202127  2.727952
H    -4.285027  1.207907  1.310821
Cd    -0.333726  4.292540  4.369214
