30
Energy: -173737.746352 eV PBE+vdW (tier 2 basis)
C    -0.226523  0.892733  0.003810
C    -0.178883  0.357784  1.393757
O    0.961345  -0.075081  1.810236
H    0.129974  0.117243  -0.688839
H    0.469082  1.738896  -0.082923
H    -1.230913  1.211728  -0.294329
N    -1.298789  0.336164  2.121140
C    -1.490321  -0.214109  3.471392
C    -3.015001  -0.593153  3.635886
O    -3.726200  0.137165  4.310996
H    -2.121768  0.746200  1.680794
H    -0.914053  -1.155514  3.535777
C    -1.110749  0.797265  4.594748
C    -0.480716  0.191278  5.806381
N    0.810365  -0.353052  5.758789
C    -0.913873  0.078679  7.101049
C    1.139157  -0.777663  6.985586
N    0.108926  -0.520566  7.805447
H    -2.053175  1.291983  4.879380
H    -0.462204  1.594489  4.191236
H    -1.844739  0.380120  7.566841
H    2.071587  -1.241936  7.285211
H    0.096821  -0.727589  8.802866
N    -3.441850  -1.694242  2.983944
C    -2.662312  -2.673359  2.230460
H    -4.435999  -1.877990  3.107216
H    -3.352893  -3.424354  1.836205
H    -1.936311  -3.200763  2.866140
H    -2.147640  -2.222825  1.371352
Cd    1.483747  -0.403993  3.781632
