30
Energy: -173737.251017 eV PBE+vdW (tier 2 basis)
C    -1.388627  1.602841  1.601899
C    -0.582581  0.458296  2.121494
O    0.610285  0.344755  1.699295
H    -2.250248  1.842825  2.235242
H    -1.755669  1.310405  0.606066
H    -0.752648  2.485951  1.483219
N    -1.182913  -0.374971  2.991093
C    -0.836948  -1.740411  3.438352
C    0.185360  -1.726073  4.595726
O    1.419151  -1.457761  4.414330
H    -2.142434  -0.113715  3.198293
H    -1.778353  -2.128849  3.848976
C    -0.436420  -2.748308  2.327768
C    -1.374667  -2.863098  1.184884
N    -1.790067  -1.778121  0.450589
C    -1.920524  -4.037671  0.659346
C    -2.576901  -2.268861  -0.490639
N    -2.683562  -3.632727  -0.390403
H    -0.302918  -3.726537  2.809755
H    0.585433  -2.510855  1.906006
H    -1.833365  -5.078201  0.951442
H    -3.082995  -1.699305  -1.263638
H    -3.227061  -4.237900  -1.001301
N    -0.260467  -2.025174  5.803835
C    0.554693  -2.071566  7.021995
H    -1.252693  -2.224850  5.907387
H    0.366053  -3.017540  7.541636
H    0.280706  -1.237314  7.679792
H    1.610790  -1.998067  6.754633
Cd    2.127592  -0.959204  2.439928
