30
Energy: -173737.483343 eV PBE+vdW (tier 2 basis)
C    -1.472950  0.690084  0.025906
C    -1.190924  0.646641  1.500044
O    -0.635008  1.540494  2.126525
H    -2.200363  1.489723  -0.169270
H    -1.860503  -0.252089  -0.377245
H    -0.551631  0.964442  -0.502226
N    -1.596067  -0.507318  2.177094
C    -1.443529  -0.535959  3.617490
C    -0.828243  -1.880618  4.008792
O    -1.444984  -2.797840  4.697638
H    -2.162508  -1.204779  1.703177
H    -0.695989  0.259002  3.808836
C    -2.759485  -0.091429  4.330214
C    -2.671176  0.501678  5.704779
N    -2.732966  -0.261961  6.876356
C    -2.605489  1.816598  6.093155
C    -2.698216  0.565035  7.928766
N    -2.624428  1.823489  7.470102
H    -3.517902  -0.894622  4.304335
H    -3.171123  0.687081  3.675411
H    -2.565106  2.728444  5.508712
H    -2.732795  0.286177  8.975534
H    -2.605964  2.655532  8.057579
N    0.377981  -2.193235  3.570611
C    1.278446  -1.417582  2.714194
H    0.682895  -3.136254  3.818089
H    2.304131  -1.718441  2.949392
H    1.170176  -0.343892  2.895751
H    1.076506  -1.630264  1.656408
Cd    -2.457550  -2.307954  6.448524
