30
Energy: -173737.216002 eV PBE+vdW (tier 2 basis)
C    -0.369750  1.284638  0.848652
C    0.122332  0.093495  1.641851
O    1.438463  -0.048379  1.453993
H    -0.139283  1.143478  -0.215523
H    0.167084  2.185391  1.172506
H    -1.443105  1.433602  0.993179
N    -0.747949  -0.575172  2.329629
C    -0.660501  -1.832874  3.072636
C    0.274534  -1.917254  4.302155
O    1.541180  -2.129137  4.259170
H    -2.201644  -1.162595  1.148262
H    -1.662819  -1.946579  3.519174
C    -0.491263  -3.058476  2.129165
C    -1.675457  -3.204942  1.221240
N    -2.430880  -2.117255  0.809645
C    -2.248784  -4.305657  0.636017
C    -3.423468  -2.517885  0.011675
N    -3.319445  -3.847571  -0.104854
H    -0.378325  -3.982124  2.713401
H    0.419655  -2.954634  1.516706
H    -1.990826  -5.355968  0.685589
H    -4.174716  -1.890285  -0.452987
H    -3.945885  -4.428518  -0.658190
N    -0.306901  -1.811787  5.484048
C    0.383047  -1.864910  6.774475
H    -1.318729  -1.707149  5.500500
H    0.390088  -2.893314  7.158607
H    -0.148618  -1.219782  7.480615
H    1.413528  -1.520700  6.654473
Cd    2.577438  -1.274657  2.627188
