30
Energy: -173737.064604 eV PBE+vdW (tier 2 basis)
C    -0.859679  0.709340  -0.680347
C    -0.945796  1.212208  0.724231
O    -0.369653  2.324449  1.032381
H    0.192675  0.581678  -0.967786
H    -1.275745  1.477587  -1.347650
H    -1.395072  -0.233086  -0.832210
N    -1.655106  0.503825  1.593783
C    -2.064414  0.781962  2.973006
C    -1.100932  1.582487  3.836869
O    0.163000  1.368832  3.813771
H    -2.149193  -0.361978  1.239352
H    -3.025802  1.316466  2.923758
C    -2.305607  -0.587331  3.698286
C    -3.285678  -1.469047  2.992446
N    -3.210503  -1.676089  1.634934
C    -4.319126  -2.239301  3.522350
C    -4.166777  -2.545717  1.335949
N    -4.849068  -2.910105  2.458436
H    -2.649569  -0.392906  4.721984
H    -1.331583  -1.095390  3.780034
H    -4.686222  -2.367100  4.533951
H    -4.397229  -2.931129  0.348456
H    -5.619360  -3.573152  2.496486
N    -1.602594  2.417705  4.737870
C    -3.003278  2.762281  5.003871
H    -0.905549  2.816697  5.367954
H    -3.521379  3.034438  4.076568
H    -3.016586  3.629082  5.670354
H    -3.531099  1.936569  5.497774
Cd    1.348921  2.327726  2.287138
