30
Energy: -173736.947374 eV PBE+vdW (tier 2 basis)
C    -0.316132  -1.015017  2.698380
C    0.058524  0.241777  1.999616
O    1.262867  0.662560  2.063902
H    0.070651  -0.947700  3.726818
H    0.195194  -1.874098  2.240335
H    -1.396107  -1.184542  2.732727
N    -0.852001  0.972793  1.309310
C    -1.832826  0.449774  0.363384
C    -1.150039  0.419863  -1.043194
O    0.067339  0.811101  -1.235428
H    -0.562316  1.936297  1.130023
H    -2.045717  -0.591963  0.642325
C    -3.148809  1.275014  0.424691
C    -4.375271  0.534594  -0.010409
N    -4.381372  -0.307716  -1.095189
C    -5.652654  0.579815  0.540527
C    -5.622868  -0.764725  -1.215738
N    -6.413867  -0.244524  -0.239235
H    -3.031426  2.193944  -0.174810
H    -3.283248  1.597843  1.465397
H    -6.056886  1.112713  1.393151
H    -5.982555  -1.450405  -1.975328
H    -7.405434  -0.433683  -0.114795
N    -1.863917  -0.010923  -2.048202
C    -1.369645  -0.119326  -3.421204
H    -2.885232  -0.254794  -1.839347
H    -2.135106  -0.620887  -4.018896
H    -0.441829  -0.702147  -3.452433
H    -1.177648  0.875862  -3.841883
Cd    1.784170  1.211244  0.004554
