23
Energy: -167611.132104 eV PBE+vdW (tier 2 basis)
C    0.025933  -0.147271  -0.154557
C    0.051411  0.398527  1.240337
O    1.245654  0.654175  1.679928
H    0.857870  0.268138  -0.732680
H    -0.922804  0.068868  -0.658758
H    0.166480  -1.237978  -0.104838
N    -1.033750  0.583757  1.956032
C    -2.444282  0.338275  1.601659
C    -3.204229  1.131508  2.690446
O    -2.590140  1.528308  3.688870
H    -0.999101  0.992861  2.909407
H    -2.645586  0.766488  0.608930
C    -2.807678  -1.154104  1.649434
H    -2.236892  -1.715536  0.900969
H    -3.870533  -1.304702  1.428467
H    -2.601835  -1.573386  2.641820
N    -4.537881  1.359399  2.570287
C    -5.428939  1.114630  1.458793
H    -4.932340  1.833279  3.387950
H    -5.973859  2.039926  1.215147
H    -6.188096  0.365471  1.746264
H    -4.892604  0.763480  0.574410
Cd    2.113201  1.419889  3.448681
