23
Energy: -167612.447416 eV PBE+vdW (tier 2 basis)
C    0.452364  -0.952468  -0.002531
C    0.168813  -0.526204  1.398395
O    1.066554  0.173930  1.983756
H    0.546659  -0.051664  -0.627816
H    -0.330178  -1.595792  -0.419484
H    1.420877  -1.468147  -0.039549
N    -1.000159  -0.880924  1.957480
C    -1.610586  -0.347765  3.188069
C    -1.121169  -1.089461  4.460549
O    -0.155028  -0.570258  5.148383
H    -1.619188  -1.427291  1.360673
H    -1.224224  0.678789  3.321747
C    -3.125274  -0.207966  3.022350
H    -3.587916  0.095619  3.969441
H    -3.604216  -1.133730  2.685692
H    -3.334028  0.574305  2.282490
N    -1.644807  -2.205101  4.920969
C    -2.753264  -3.030455  4.421456
H    -1.209580  -2.528253  5.789040
H    -3.719666  -2.624857  4.744781
H    -2.632008  -4.030197  4.849313
H    -2.720048  -3.118403  3.332051
Cd    1.218075  0.601293  4.049747
