23
Energy: -167611.851308 eV PBE+vdW (tier 2 basis)
C    0.643043  0.641536  1.562458
C    -0.195321  -0.580586  1.299706
O    0.362161  -1.592900  0.772627
H    1.701385  0.366776  1.538283
H    0.396521  1.114402  2.520051
H    0.458923  1.364294  0.751097
N    -1.514552  -0.659822  1.595522
C    -2.380224  0.470434  1.917517
C    -2.466985  0.663707  3.437115
O    -1.991447  -0.262454  4.227961
H    -1.574759  -0.956922  3.668124
H    -1.959534  1.394301  1.486023
C    -3.782876  0.246203  1.319236
H    -4.241327  -0.662773  1.731489
H    -3.698091  0.157659  0.229633
H    -4.453182  1.088417  1.527472
N    -3.014889  1.717968  3.970974
C    -3.175849  1.990492  5.409742
H    -3.382162  2.423157  3.331900
H    -4.244402  1.973107  5.657422
H    -2.770409  2.986089  5.622662
H    -2.645072  1.235404  5.992855
Cd    -1.556954  -2.674492  0.593129
