23
Energy: -167612.47286 eV PBE+vdW (tier 2 basis)
C    -0.594884  -0.769433  0.145250
C    -0.202511  -0.503195  1.561308
O    1.041138  -0.626351  1.840199
H    -0.345271  -1.815350  -0.090018
H    0.006425  -0.141564  -0.525239
H    -1.661088  -0.607941  -0.046644
N    -1.166141  -0.166409  2.434266
C    -1.206688  -0.143586  3.922889
C    -0.645746  1.160200  4.526222
O    0.615762  1.421415  4.570175
H    -2.084326  -0.081424  2.003999
H    -2.279625  -0.151261  4.145096
C    -0.623232  -1.392109  4.595247
H    -0.834193  -1.367637  5.671579
H    0.466907  -1.521793  4.483788
H    -1.083826  -2.292174  4.170827
N    -1.462450  2.035533  5.075352
C    -2.928984  1.993881  5.202313
H    -0.993004  2.843274  5.492020
H    -3.406780  1.829530  4.230126
H    -3.253523  2.969006  5.576298
H    -3.239767  1.226800  5.922451
Cd    1.982807  0.213585  3.521494
