23
Energy: -167611.229078 eV PBE+vdW (tier 2 basis)
C    0.149090  0.451741  0.280636
C    -0.182836  -0.516241  1.374587
O    0.559510  -1.579835  1.376407
H    -0.112890  1.480280  0.554667
H    -0.413655  0.165483  -0.621235
H    1.215316  0.390733  0.039536
N    -1.151365  -0.311142  2.238918
C    -2.064806  0.838221  2.361536
C    -2.655619  0.654527  3.782161
O    -2.455812  -0.393633  4.400909
H    -1.331265  -0.968175  3.020841
H    -1.479056  1.770033  2.326705
C    -3.167797  0.845010  1.293106
H    -3.844172  1.696513  1.438942
H    -3.761421  -0.076291  1.333633
H    -2.736706  0.949051  0.290599
N    -3.405563  1.672089  4.281039
C    -4.032038  1.640210  5.583365
H    -3.472863  2.536681  3.744338
H    -4.087180  0.607644  5.939799
H    -5.027409  2.102081  5.517057
H    -3.446363  2.235669  6.308451
Cd    0.786899  -3.321653  2.553999
