23
Energy: -167611.780437 eV PBE+vdW (tier 2 basis)
C    -0.287131  1.110697  -0.113352
C    0.120202  0.285073  1.077579
O    1.344382  -0.031624  1.201705
H    -0.726943  0.435464  -0.864958
H    0.599788  1.576430  -0.552141
H    -1.025259  1.877535  0.148664
N    -0.748316  -0.140276  2.024293
C    -2.204712  -0.125259  1.907491
C    -2.773031  1.186279  2.448952
O    -2.019680  1.935419  3.217829
H    -1.119380  1.542081  3.254471
H    -2.494152  -0.218692  0.848465
C    -2.800330  -1.313905  2.689473
H    -2.525464  -1.254991  3.751117
H    -2.421908  -2.249255  2.260270
H    -3.893506  -1.337122  2.623236
N    -3.983773  1.616390  2.227321
C    -5.048104  1.002365  1.424672
H    -4.224514  2.495501  2.696168
H    -4.646531  0.235441  0.757615
H    -5.520469  1.787189  0.823833
H    -5.801380  0.559742  2.088825
Cd    0.934208  -1.305481  2.959473
