25
Energy: -607289.017559 eV PBE+vdW (tier 2 basis)
N    0.283718  -0.477637  -0.155931
C    0.657085  -0.879372  1.205621
C    2.201788  -0.922864  1.193177
O    2.909627  -1.221815  2.195124
H    -0.243643  -1.183070  -0.671431
H    1.851231  -0.418820  -0.500215
H    0.368981  -0.091785  1.918857
C    0.033096  -2.234865  1.628348
C    0.277438  -2.720395  3.042094
C    -0.048634  -1.939768  4.184115
C    0.737540  -4.039439  3.287930
C    0.024040  -2.463573  5.484693
C    0.797249  -4.584011  4.587092
C    0.385328  -3.818648  5.700809
O    0.336935  -4.255424  6.954928
H    0.354744  -3.012989  0.920887
H    -1.057005  -2.135207  1.502650
H    -0.407540  -0.915983  4.065342
H    1.010459  -4.678943  2.446376
H    -0.258363  -1.853269  6.343395
H    1.124549  -5.617242  4.716275
H    0.534194  -5.207440  7.040433
O    2.727870  -0.619107  0.069641
H    -0.225138  0.404961  -0.199006
Pb    2.712448  -2.280294  4.185797
