25
Energy: -607288.440334 eV PBE+vdW (tier 2 basis)
N    -0.842452  1.326213  1.356245
C    -0.295872  0.269785  2.265178
C    1.253626  0.351390  2.101785
O    1.693180  0.843143  1.086190
H    -0.086969  1.428930  0.636940
H    -0.831295  2.226628  1.851709
H    -0.615507  0.491372  3.292440
C    -0.746953  -1.149898  1.828448
C    -2.216968  -1.288939  1.506668
C    -2.636216  -1.801456  0.244312
C    -3.244198  -0.935582  2.421336
C    -3.989226  -2.015847  -0.061302
C    -4.605808  -1.125237  2.115917
C    -4.994181  -1.721813  0.889020
O    -6.244851  -2.005442  0.548780
H    -0.483514  -1.860846  2.626459
H    -0.163616  -1.453691  0.947667
H    -1.882551  -2.087790  -0.492307
H    -2.988861  -0.544164  3.407959
H    -4.279827  -2.444928  -1.020913
H    -5.359865  -0.858148  2.858823
H    -6.890650  -1.840987  1.261968
O    2.037689  -0.176449  3.034609
H    1.564172  -0.470753  3.834820
Pb    -3.084289  0.918507  0.405252
