25
Energy: -607289.622335 eV PBE+vdW (tier 2 basis)
N    -0.329178  0.935389  2.402244
C    0.214515  -0.388388  2.000001
C    0.121652  -0.464688  0.483482
O    -0.820020  0.055495  -0.143377
H    -0.364836  1.005813  3.424419
H    0.287427  1.693896  2.088522
H    1.263473  -0.517025  2.301146
C    -0.637162  -1.529737  2.645145
C    -2.141866  -1.390235  2.490872
C    -2.932080  -0.798484  3.519634
C    -2.846526  -1.938070  1.383743
C    -4.324002  -0.757581  3.450977
C    -4.243028  -1.906375  1.306213
C    -5.002222  -1.338186  2.353520
O    -6.331708  -1.303186  2.388622
H    -0.381873  -1.552380  3.713932
H    -0.293030  -2.487625  2.232675
H    -2.445830  -0.407420  4.415505
H    -2.295757  -2.434457  0.583519
H    -4.910609  -0.324480  4.261076
H    -4.742160  -2.362451  0.449857
H    -6.745456  -1.772524  1.640242
O    1.077455  -1.156493  -0.078078
H    0.962220  -1.212884  -1.053383
Pb    -2.587400  0.929078  1.259492
