25
Energy: -607288.262075 eV PBE+vdW (tier 2 basis)
N    0.375896  -0.709667  0.085156
C    0.194625  -0.184730  1.426191
C    1.317565  0.754426  1.810050
O    1.947005  1.401042  0.892524
H    -0.513296  -1.007063  -0.316429
H    0.785092  -0.019532  -0.545261
H    -0.679276  0.509882  1.498550
C    -0.128055  -1.271856  2.470891
C    0.957840  -2.385817  2.739309
C    0.496689  -3.202479  3.892028
C    1.316604  -3.177221  1.533876
C    0.340184  -4.547568  3.825056
C    1.147540  -4.523851  1.468222
C    0.650694  -5.227737  2.604134
O    0.517914  -6.524699  2.465450
H    -1.051817  -1.770889  2.147948
H    -0.350714  -0.782972  3.427717
H    0.255148  -2.678725  4.818781
H    1.709426  -2.634610  0.675891
H    -0.015066  -5.118079  4.685100
H    1.400863  -5.097860  0.577490
H    0.191495  -6.968334  3.274877
O    1.601014  0.985088  3.045277
H    1.869036  -1.844531  3.071682
Pb    3.069593  2.663780  2.443489
