25
Energy: -607288.056246 eV PBE+vdW (tier 2 basis)
N    0.033429  0.149093  -0.009592
C    -0.017758  0.013873  1.429486
C    1.200991  0.811996  1.886294
O    2.394580  0.328417  1.796744
H    -0.859649  0.211274  -0.486475
H    0.719905  -0.406159  -0.508398
H    -0.879901  0.600569  1.776450
C    -0.162603  -1.382458  2.086092
C    0.765222  -2.546137  1.559845
C    1.154948  -3.452513  2.667667
C    0.180529  -3.245184  0.387959
C    0.979573  -4.797046  2.626194
C    -0.001627  -4.589160  0.345141
C    0.394372  -5.387053  1.465009
O    0.251546  -6.688210  1.494059
H    -1.206816  -1.702576  1.975483
H    0.001575  -1.270910  3.167877
H    1.602997  -2.998657  3.553231
H    -0.128217  -2.640825  -0.465495
H    1.267867  -5.450280  3.449058
H    -0.445678  -5.069984  -0.528238
H    -0.153342  -7.053338  0.680460
O    1.047285  2.021729  2.293828
H    1.707862  -2.059485  1.219178
Pb    3.285908  2.392026  2.390147
