25
Energy: -607289.150793 eV PBE+vdW (tier 2 basis)
N    -0.047594  2.390166  3.691201
C    -0.070678  1.061503  2.965740
C    0.776241  1.340129  1.690494
O    1.110263  0.299741  0.982925
H    0.378325  3.027488  2.944517
H    -0.971431  2.733426  3.981160
H    0.423035  0.312865  3.596996
C    -1.527955  0.657781  2.637130
C    -1.720785  -0.640068  1.876654
C    -1.440228  -1.901933  2.450446
C    -2.305857  -0.638699  0.585554
C    -1.782359  -3.102526  1.804508
C    -2.657879  -1.831165  -0.070028
C    -2.452197  -3.081014  0.558844
O    -2.881610  -4.160541  -0.092243
H    -1.995755  1.471121  2.062591
H    -2.085596  0.575093  3.583919
H    -0.985793  -1.965048  3.440680
H    -2.537444  0.309375  0.096653
H    -1.573636  -4.052359  2.299860
H    -3.144475  -1.804101  -1.045418
H    -2.772553  -4.984236  0.418645
O    1.064039  2.502411  1.442632
H    0.567345  2.387432  4.514299
Pb    0.315578  -1.550843  0.147242
