21
Energy: -605079.103184 eV PBE+vdW (tier 2 basis)
N    -0.301115  -0.211932  1.206064
C    0.291098  0.652578  2.225033
C    1.371419  1.509003  1.569351
O    2.588926  1.098900  1.472008
H    0.384303  -0.795114  0.724122
H    -0.852441  0.302543  0.519898
H    -0.490699  1.340264  2.575954
C    0.837619  -0.170999  3.406374
C    -0.225963  -0.914721  4.155299
N    -0.177841  -1.081744  5.535404
C    -1.359075  -1.576555  3.749469
C    -1.221746  -1.804428  5.960860
N    -1.946310  -2.106067  4.881158
H    1.363176  0.500597  4.100955
H    1.595991  -0.880202  3.038107
H    -1.770916  -1.707198  2.758353
H    -1.436116  -2.086858  6.984902
H    -2.804755  -2.652603  4.900043
O    1.039393  2.624090  1.014782
H    0.545627  -0.720999  6.152744
Pb    3.176423  2.987446  0.280119
