21
Energy: -605078.690165 eV PBE+vdW (tier 2 basis)
N    1.959939  0.021323  0.582877
C    0.636830  -0.069215  1.137265
C    0.774142  -0.331626  2.637606
O    1.852333  -0.668456  3.143404
H    1.970731  0.342557  -0.385166
H    -2.409218  -0.050243  -0.872961
H    0.071435  0.875691  1.013080
C    -0.189736  -1.240921  0.456015
C    -1.661505  -1.313188  0.705633
N    -2.608170  -0.649160  -0.073931
C    -2.392714  -2.038890  1.616926
C    -3.847583  -0.956979  0.326771
N    -3.726308  -1.797093  1.358210
H    0.267660  -2.196357  0.744484
H    -0.017096  -1.137309  -0.624200
H    -2.073042  -2.719148  2.397277
H    -4.774234  -0.595862  -0.106375
H    -4.512093  -2.209351  1.859739
O    -0.274819  -0.238947  3.435915
H    -1.057218  0.118325  2.975458
Pb    3.745863  -0.414405  1.737666
