21
Energy: -605078.831613 eV PBE+vdW (tier 2 basis)
N    0.205141  0.273242  1.504149
C    1.486956  -0.216275  1.970669
C    1.897056  -1.199095  0.869333
O    1.522419  -2.438210  0.843060
H    -0.608408  -0.083494  1.996195
H    0.151323  1.278434  1.373568
H    2.227205  0.592494  1.910217
C    1.543488  -0.766578  3.417758
C    0.396370  -1.604413  3.881381
N    0.004921  -2.799126  3.289588
C    -0.430685  -1.443587  4.965064
C    -1.005757  -3.349696  3.971312
N    -1.275968  -2.533575  4.995172
H    1.596027  0.100639  4.088513
H    2.485696  -1.319054  3.563540
H    -0.470007  -0.662056  5.713836
H    -1.514739  -4.277904  3.739687
H    -1.998143  -2.703441  5.692638
O    2.582564  -0.746897  -0.120717
H    0.421232  -3.155716  2.425606
Pb    2.550309  -2.691690  -1.262565
