21
Energy: -605078.925584 eV PBE+vdW (tier 2 basis)
N    -1.182720  0.312688  0.781699
C    -0.119424  -0.037319  1.708937
C    1.237563  0.378961  1.179466
O    1.321376  1.369032  0.362044
H    -1.028084  1.232426  0.367227
H    -2.082165  0.347412  1.263373
H    -0.152374  0.551179  2.657738
C    -0.199174  -1.510627  2.164388
C    -0.292483  -2.540119  1.080140
N    0.061416  -3.865631  1.313533
C    -0.775434  -2.514073  -0.205175
C    -0.189362  -4.618781  0.235295
N    -0.692798  -3.804111  -0.694608
H    -1.091730  -1.602565  2.804284
H    0.660816  -1.729724  2.812449
H    -1.186922  -1.688807  -0.770183
H    -0.015697  -5.684141  0.138418
H    -0.989805  -4.104399  -1.620511
O    2.319188  -0.168175  1.614444
H    0.439632  -4.233761  2.183490
Pb    3.608183  1.409536  0.531548
