21
Energy: -605078.376519 eV PBE+vdW (tier 2 basis)
N    1.823242  -1.890066  0.770082
C    0.607155  -1.153235  1.049459
C    0.925268  -0.089699  2.096977
O    0.803686  -0.290416  3.339222
H    2.297481  -2.286814  1.579427
H    2.486704  -1.439533  0.143858
H    0.293091  -0.643067  0.125439
C    -0.512702  -2.124774  1.482129
C    -1.851466  -1.523273  1.773608
N    -2.204926  -0.983390  3.016961
C    -2.954223  -1.437146  0.961382
C    -3.488611  -0.592492  2.938394
N    -3.952327  -0.852572  1.708979
H    -0.163711  -2.723495  2.340928
H    -0.613227  -2.846917  0.661699
H    -3.114002  -1.760529  -0.060733
H    -4.078816  -0.139221  3.727771
H    -4.900592  -0.662736  1.388269
O    1.472748  1.051833  1.765008
H    1.575341  1.164040  0.797734
Pb    -0.757628  -0.823037  4.847428
