21
Energy: -605079.327341 eV PBE+vdW (tier 2 basis)
N    0.954275  0.420895  0.458200
C    0.472011  0.008526  1.836985
C    1.659572  -0.594653  2.572656
O    1.488881  -0.900188  3.791577
H    1.766050  -0.186428  0.224548
H    1.288233  1.395566  0.449604
H    0.069958  0.894099  2.342019
C    -0.607551  -1.105815  1.802129
C    -0.199807  -2.486007  1.357078
N    0.767965  -3.305312  1.963313
C    -0.837078  -3.231706  0.393694
C    0.690570  -4.496214  1.360212
N    -0.264936  -4.479477  0.415508
H    -1.449740  -0.774487  1.177877
H    -0.998687  -1.148648  2.829615
H    -1.663487  -2.990362  -0.265130
H    1.295263  -5.369734  1.582154
H    -0.532002  -5.269207  -0.168771
O    2.647787  -0.993197  1.878587
H    0.227126  0.332108  -0.264158
Pb    2.680596  -2.871761  3.441302
