21
Energy: -605078.881477 eV PBE+vdW (tier 2 basis)
N    3.159416  -1.598948  2.327470
C    2.739145  -1.146427  1.010620
C    2.236303  0.287230  1.117167
O    0.994440  0.590545  1.318852
H    4.059374  -1.227950  2.626413
H    2.467778  -1.487828  3.066463
H    3.637774  -1.090859  0.381614
C    1.772950  -2.144794  0.325582
C    0.703979  -2.748839  1.173193
N    -0.404978  -2.062787  1.653637
C    0.543720  -4.044036  1.595960
C    -1.211053  -2.889636  2.331319
N    -0.641004  -4.098179  2.300267
H    2.393258  -2.974102  -0.036114
H    1.327066  -1.681225  -0.567658
H    1.165549  -4.917110  1.442044
H    -2.147990  -2.633227  2.811394
H    -1.036824  -4.932770  2.728671
O    3.101358  1.243907  1.075898
H    -0.552861  -1.062893  1.524360
Pb    1.556599  2.878930  1.265847
