21
Energy: -605078.700626 eV PBE+vdW (tier 2 basis)
N    -0.980235  0.048870  1.429222
C    0.376013  -0.078045  2.066856
C    1.374684  0.141401  0.904941
O    0.983757  0.170616  -0.245557
H    -1.337772  0.997271  1.599516
H    -0.745246  0.040346  0.402965
H    0.501006  0.716812  2.813774
C    0.622668  -1.452889  2.722713
C    -0.225751  -1.753388  3.913595
N    -1.611976  -1.911394  3.827741
C    0.136934  -1.990740  5.213826
C    -2.061758  -2.239794  5.053902
N    -1.024263  -2.286967  5.897184
H    1.676774  -1.494609  3.025016
H    0.504058  -2.244854  1.961122
H    1.107309  -1.992077  5.696689
H    -3.089893  -2.440847  5.335708
H    -1.085660  -2.520751  6.887372
O    2.621817  0.257214  1.335432
H    3.229034  0.390794  0.575676
Pb    -2.792503  -1.487966  1.892309
