21
Energy: -605079.093078 eV PBE+vdW (tier 2 basis)
N    2.248211  -2.430299  0.658422
C    1.362305  -1.300026  0.503988
C    1.988276  0.077603  0.780356
O    1.256477  1.135530  0.845477
H    2.993644  -2.442781  -0.036205
H    2.681647  -2.468784  1.581554
H    1.066121  -1.240535  -0.559738
C    0.067666  -1.479236  1.336536
C    -0.750153  -2.661104  0.914126
N    -2.140777  -2.645831  0.944943
C    -0.409652  -3.920804  0.486106
C    -2.634458  -3.828394  0.556532
N    -1.588099  -4.607417  0.272662
H    -0.540280  -0.567503  1.261988
H    0.338576  -1.589876  2.399582
H    0.567180  -4.358199  0.331632
H    -3.681637  -4.097678  0.484373
H    -1.659764  -5.570250  -0.049411
O    3.261378  0.186112  0.907541
H    -2.720408  -1.858955  1.226772
Pb    3.115748  2.474427  1.093765
