21
Energy: -605079.113293 eV PBE+vdW (tier 2 basis)
N    0.419556  -0.563113  -0.363588
C    0.128129  0.045023  0.942527
C    1.383493  0.580813  1.601224
O    1.390255  0.862790  2.856353
H    1.194167  -0.081091  -0.824487
H    -0.390704  -0.470445  -0.979932
H    -0.476649  0.972861  0.844406
C    -0.709362  -0.898086  1.842643
C    -0.164699  -2.281076  2.014034
N    0.438575  -2.970740  0.973616
C    -0.233265  -3.164223  3.062508
C    0.731948  -4.217120  1.350464
N    0.324373  -4.347571  2.619808
H    -1.707699  -0.971486  1.382809
H    -0.861338  -0.438336  2.826296
H    -0.644250  -3.057896  4.058416
H    1.208773  -4.981566  0.748553
H    0.404275  -5.202701  3.165469
O    2.419867  0.850466  0.889541
H    0.633306  -2.468501  0.085960
Pb    3.438247  1.898997  2.677383
