21
Energy: -605077.606931 eV PBE+vdW (tier 2 basis)
N    0.907840  -0.266622  0.232651
C    0.059500  -0.154313  1.399277
C    0.892759  0.251746  2.585394
O    1.957213  0.759269  2.641077
H    0.399328  -0.023933  -0.617754
H    1.728241  0.337799  0.284619
H    -0.692162  0.666031  1.342878
C    -0.753161  -1.468354  1.598661
C    0.079139  -2.664697  1.908766
N    0.310867  -3.094392  3.220110
C    0.761263  -3.510578  1.073639
C    1.106768  -4.182530  3.161050
N    1.386828  -4.438729  1.878785
H    -1.293719  -1.635655  0.657991
H    -1.548302  -1.325355  2.351281
H    0.844763  -3.526866  -0.006073
H    1.462355  -4.775897  3.996546
H    1.961827  -5.214086  1.551209
O    0.164885  0.041790  3.896320
H    0.562520  0.723472  4.483441
Pb    -0.409351  -1.952088  5.076921
