21
Energy: -605079.645594 eV PBE+vdW (tier 2 basis)
N    0.732162  -1.408578  -0.140646
C    0.436385  -0.500328  1.004460
C    1.759728  -0.088129  1.642568
O    2.790330  -0.780775  1.565390
H    -0.125550  -1.895376  -0.422293
H    1.027109  -0.865552  -0.960392
H    -0.070800  0.410463  0.654488
C    -0.490729  -1.184212  2.035409
C    0.055804  -2.349231  2.813001
N    1.030585  -3.240522  2.359988
C    -0.377901  -2.789480  4.039616
C    1.171310  -4.186012  3.301818
N    0.329841  -3.935492  4.315384
H    -1.400030  -1.488677  1.489795
H    -0.825210  -0.415309  2.744571
H    -1.129224  -2.397676  4.715510
H    1.852426  -5.029837  3.271830
H    0.230489  -4.507362  5.152246
O    1.693153  1.039121  2.298000
H    2.550719  1.264482  2.723929
Pb    2.554403  -2.933516  0.576326
