21
Energy: -605078.809594 eV PBE+vdW (tier 2 basis)
N    -0.215427  0.715661  0.485599
C    0.346485  -0.273268  1.376505
C    1.139259  -1.296381  0.592997
O    1.587593  -0.990637  -0.569846
H    -0.490718  1.562650  0.981043
H    0.413115  0.975102  -0.273471
H    1.112645  0.131496  2.083347
C    -0.802095  -0.901781  2.231000
C    -0.452853  -1.368266  3.603668
N    0.425078  -2.408038  3.880798
C    -0.920409  -0.949159  4.823937
C    0.496762  -2.623092  5.199965
N    -0.320532  -1.740246  5.781791
H    -1.288529  -1.707808  1.662938
H    -1.562829  -0.119252  2.336884
H    -1.631115  -0.173132  5.079707
H    1.100846  -3.368059  5.704109
H    -0.474784  -1.672921  6.785986
O    1.405029  -2.469979  1.069555
H    0.943481  -2.912392  3.161872
Pb    2.482798  -3.046458  -0.937384
