21
Energy: -605078.834897 eV PBE+vdW (tier 2 basis)
N    0.105170  -0.323485  0.016859
C    -0.072680  0.154810  1.388720
C    1.294823  0.725561  1.766744
O    1.508413  1.972482  1.540526
H    0.047532  0.441921  -0.655126
H    -0.613088  -1.002578  -0.235200
H    -0.778087  0.998304  1.485841
C    -0.580490  -0.961234  2.334359
C    -0.107029  -2.352125  2.059046
N    1.223760  -2.741728  2.035988
C    -0.829895  -3.496799  1.835470
C    1.323198  -4.055372  1.807496
N    0.077694  -4.525744  1.687722
H    -1.675555  -0.975023  2.257113
H    -0.360835  -0.691127  3.378308
H    -1.899368  -3.659864  1.785736
H    2.236731  -4.632728  1.729646
H    -0.156074  -5.501754  1.517296
O    2.254595  0.011756  2.252628
H    1.999848  -2.087122  2.142097
Pb    3.654434  1.899995  2.274532
