23
Energy: -99209.6982208 eV PBE+vdW (tier 2 basis)
N    -0.905517  0.357598  0.313934
C    -0.738276  0.033136  1.793525
C    0.554194  0.699243  2.262588
O    1.584633  0.586464  1.510252
H    -1.585238  -0.276227  -0.131905
H    -1.225452  1.323959  0.154765
H    -1.599251  0.454437  2.324542
C    -0.654953  -1.502835  1.931983
C    -0.378908  -2.102375  3.333902
C    1.075917  -1.957134  3.834735
C    -1.390320  -1.654526  4.395215
H    0.111263  -1.868761  1.228710
H    -1.623969  -1.903049  1.592370
H    -0.523466  -3.182009  3.171638
H    1.304540  -2.739369  4.568724
H    1.198125  -1.001944  4.381352
H    1.811324  -2.060046  3.018425
H    -1.287295  -0.589257  4.647439
H    -1.249783  -2.223181  5.322773
H    -2.422407  -1.831040  4.064899
O    0.600123  1.222617  3.414485
H    0.008990  0.242346  -0.156163
Sr    2.941729  0.895955  3.460811
