23
Energy: -99209.8239162 eV PBE+vdW (tier 2 basis)
N    -0.122036  0.877053  1.464533
C    0.910736  -0.064585  2.062374
C    2.082322  -0.159148  1.093211
O    3.158142  -0.709504  1.484990
H    0.000999  1.850905  1.769537
H    -0.030528  0.853757  0.433607
H    1.253554  0.374698  3.007870
C    0.277407  -1.446640  2.314779
C    -0.976944  -1.427388  3.216309
C    -1.489084  -2.865617  3.380864
C    -0.727308  -0.756332  4.571011
H    1.057896  -2.061271  2.786468
H    0.038716  -1.920455  1.348406
H    -1.789476  -0.875452  2.694118
H    -2.425704  -2.874751  3.950623
H    -0.759484  -3.477812  3.929014
H    -1.681974  -3.347044  2.413112
H    0.085500  -1.257190  5.115933
H    -1.625838  -0.815882  5.196700
H    -0.472993  0.312931  4.497017
O    1.942036  0.280203  -0.105390
H    -1.068448  0.568062  1.743393
Sr    4.179511  -0.452537  -0.614480
