23
Energy: -99209.7832822 eV PBE+vdW (tier 2 basis)
N    0.983857  -0.288883  -0.172887
C    0.535485  -0.104615  1.271144
C    1.423095  -0.979982  2.158768
O    1.175199  -1.032586  3.403133
H    1.972730  -0.589396  -0.193366
H    0.419953  -1.036485  -0.615250
H    0.779863  0.936009  1.535861
C    -0.976659  -0.319410  1.434047
C    -1.525301  -1.756741  1.316765
C    -3.042354  -1.718582  1.545010
C    -1.198654  -2.454713  -0.015356
H    -1.485197  0.339638  0.709986
H    -1.234161  0.083990  2.423047
H    -1.080010  -2.354029  2.131854
H    -3.550403  -1.159864  0.745978
H    -3.297036  -1.244252  2.501441
H    -3.458666  -2.733256  1.554198
H    -1.752518  -3.398149  -0.102473
H    -0.137386  -2.747180  -0.116037
H    -1.506560  -1.849511  -0.885359
O    2.420590  -1.597909  1.639510
H    0.868874  0.572634  -0.721230
Sr    3.054260  -2.377727  3.827218
