23
Energy: -99209.7880599 eV PBE+vdW (tier 2 basis)
N    1.116770  0.093634  -0.010189
C    0.491753  -0.089349  1.363920
C    1.446848  -0.955315  2.191294
O    1.083957  -1.338049  3.344693
H    1.024051  1.054860  -0.361437
H    2.119110  -0.165547  0.048394
H    0.505418  0.898148  1.850824
C    -0.963251  -0.574571  1.261343
C    -1.236805  -1.777729  0.336236
C    -0.442766  -3.036232  0.710724
C    -2.746910  -2.057794  0.321237
H    -1.578818  0.279411  0.942618
H    -1.282634  -0.808022  2.287491
H    -0.973589  -1.502094  -0.707989
H    -0.718992  -3.871376  0.055597
H    -0.662189  -3.341068  1.744149
H    0.648085  -2.912184  0.605339
H    -2.984068  -2.862219  -0.384950
H    -3.322060  -1.171779  0.023677
H    -3.095735  -2.369261  1.315751
O    2.615903  -1.216012  1.725646
H    0.652439  -0.537669  -0.683899
Sr    3.148484  -2.377780  3.762533
