23
Energy: -99209.1159947 eV PBE+vdW (tier 2 basis)
N    0.040392  0.379610  0.261186
C    0.353638  -0.056783  1.665731
C    1.829325  -0.434996  1.734326
O    2.616367  -0.139563  0.808263
H    -0.422713  -0.413536  -0.202319
H    -0.706601  1.080377  0.321645
H    0.257449  0.836734  2.308961
C    -0.596978  -1.145643  2.203791
C    -2.092307  -0.755581  2.221255
C    -2.905159  -1.928375  2.786303
C    -2.350084  0.535753  3.004752
H    -0.312640  -1.381206  3.245617
H    -0.451470  -2.074075  1.626423
H    -2.423438  -0.606550  1.176736
H    -3.978082  -1.707633  2.739841
H    -2.651556  -2.115293  3.839517
H    -2.732330  -2.856188  2.224904
H    -2.013281  0.446184  4.047966
H    -3.423618  0.758403  3.029869
H    -1.863739  1.425350  2.570514
O    2.321355  -1.041579  2.776592
H    1.639488  -1.276091  3.440847
Sr    2.181823  1.012485  -1.113971
