23
Energy: -99209.195269 eV PBE+vdW (tier 2 basis)
N    0.547504  0.479364  0.640279
C    0.332482  0.104478  2.072651
C    1.596212  -0.601325  2.563653
O    2.397395  -1.113859  1.762239
H    -0.361287  0.730302  0.238216
H    1.087119  1.352531  0.611209
H    0.201728  1.012922  2.685123
C    -0.952317  -0.744546  2.282678
C    -1.210736  -2.063651  1.508114
C    -1.537795  -1.904939  0.016224
C    -0.209541  -3.199072  1.756730
H    -1.796142  -0.063126  2.093230
H    -1.011940  -0.968817  3.358647
H    -2.155284  -2.413696  1.956992
H    -2.269676  -1.109423  -0.177593
H    -1.947254  -2.836415  -0.394088
H    -0.662402  -1.661144  -0.628828
H    -0.623674  -4.159012  1.424987
H    0.065782  -3.304945  2.814108
H    0.754244  -3.092989  1.214091
O    1.849212  -0.704327  3.842701
H    1.210080  -0.234288  4.415786
Sr    1.883288  -1.468021  -0.480149
