23
Energy: -99209.2814136 eV PBE+vdW (tier 2 basis)
N    -0.041810  0.509015  0.250164
C    -0.235935  0.318402  1.744052
C    1.040167  0.968895  2.349036
O    0.991538  1.216146  3.625774
H    -0.252769  -0.329433  -0.304740
H    -0.587393  1.292443  -0.129385
H    -1.123284  0.888434  2.044907
C    -0.420682  -1.191061  2.033080
C    -0.513523  -1.677982  3.504665
C    0.865390  -1.951930  4.140712
C    -1.456330  -0.844560  4.388569
H    0.397527  -1.742460  1.542400
H    -1.350443  -1.492504  1.526609
H    -0.988967  -2.668175  3.432288
H    1.353428  -2.823775  3.684995
H    0.770081  -2.214244  5.210615
H    1.598818  -1.137945  3.985467
H    -2.482184  -0.833880  3.995986
H    -1.178193  0.226130  4.445005
H    -1.530571  -1.273424  5.400037
O    1.986042  1.184972  1.602871
H    0.989936  0.753731  0.188432
Sr    1.105266  0.713606  5.729991
