23
Energy: -99209.1350977 eV PBE+vdW (tier 2 basis)
N    0.740158  0.068518  0.334619
C    -0.189124  0.237997  1.507876
C    0.493122  1.146069  2.526423
O    1.479250  1.848547  2.204677
H    1.228865  -0.827273  0.465447
H    0.160450  -0.097773  -0.495048
H    -1.055094  0.823824  1.150716
C    -0.707728  -1.108398  2.062134
C    -1.913122  -1.075533  3.037004
C    -3.092252  -0.250688  2.509561
C    -2.328238  -2.521818  3.347419
H    0.129994  -1.657769  2.522580
H    -1.026561  -1.697206  1.187208
H    -1.601113  -0.664366  4.026317
H    -2.871483  0.822684  2.400807
H    -3.943272  -0.321964  3.197275
H    -3.431085  -0.630834  1.535005
H    -3.127732  -2.538342  4.097135
H    -1.491015  -3.115767  3.736097
H    -2.709192  -3.015152  2.442084
O    0.034430  1.244290  3.735711
H    -0.707164  0.606249  3.902738
Sr    2.535905  1.981512  0.191295
