23
Energy: -99209.4391535 eV PBE+vdW (tier 2 basis)
N    0.620652  0.093983  0.408505
C    -0.000824  0.116922  1.768509
C    1.125387  0.283738  2.778049
O    2.287730  -0.106529  2.545295
H    -0.113300  -0.126151  -0.273534
H    0.917435  1.045483  0.162395
H    -0.679122  0.974275  1.891217
C    -0.843751  -1.169539  2.011881
C    -0.250171  -2.540703  1.606192
C    0.804990  -3.113751  2.577248
C    -1.385496  -3.564915  1.435467
H    -1.774490  -1.023381  1.444592
H    -1.147807  -1.192991  3.068505
H    0.179701  -2.439578  0.576079
H    1.276502  -4.026111  2.176982
H    0.318783  -3.426316  3.512371
H    1.586181  -2.413330  2.930848
H    -0.995203  -4.551965  1.157930
H    -2.096408  -3.251150  0.661631
H    -1.937401  -3.677221  2.378737
O    0.757179  0.844091  3.897905
H    1.502883  0.914392  4.534933
Sr    2.593551  -1.578251  0.705261
