23
Energy: -99209.1441466 eV PBE+vdW (tier 2 basis)
N    0.812836  -0.376248  0.465545
C    0.274082  -0.000018  1.810413
C    1.405170  -0.059469  2.830832
O    2.454659  -0.693376  2.610708
H    0.037187  -0.759472  -0.085066
H    1.073816  0.482796  -0.030842
H    -0.078492  1.043935  1.786761
C    -0.941043  -0.879141  2.259841
C    -1.082468  -2.330981  1.745034
C    0.154040  -3.239029  1.914665
C    -2.294075  -2.960583  2.454763
H    -1.848475  -0.339363  1.959101
H    -0.960711  -0.897179  3.360637
H    -1.329338  -2.298626  0.670124
H    0.757226  -3.001100  2.804934
H    0.775489  -3.235955  0.990130
H    -0.138763  -4.292436  2.008469
H    -3.187571  -2.331679  2.353263
H    -2.097899  -3.099028  3.527316
H    -2.529823  -3.940591  2.022723
O    1.286645  0.538757  3.987468
H    0.458263  1.049842  4.091642
Sr    2.893248  -1.978059  0.752538
