23
Energy: -99209.2961691 eV PBE+vdW (tier 2 basis)
N    0.596476  -0.521836  0.181641
C    0.126373  0.053835  1.478422
C    1.370875  0.404004  2.294348
O    2.415987  -0.255712  2.153878
H    -0.223021  -0.868147  -0.328008
H    0.957022  0.239076  -0.406096
H    -0.473718  0.962956  1.310369
C    -0.750687  -0.951157  2.276504
C    -0.134999  -2.315295  2.677288
C    -0.835306  -2.863465  3.933520
C    -0.196499  -3.388803  1.566122
H    -1.672177  -1.117772  1.696434
H    -1.076981  -0.433113  3.189710
H    0.919391  -2.143523  2.999742
H    -0.701306  -2.190481  4.788874
H    -0.440116  -3.847748  4.213899
H    -1.912827  -2.976065  3.750708
H    0.369619  -4.295661  1.836606
H    0.089974  -3.056648  0.546832
H    -1.232663  -3.727640  1.424343
O    1.344911  1.348717  3.197537
H    0.508269  1.856063  3.220496
Sr    2.475406  -2.221588  0.874829
