19
Energy: -12425.144396 eV PBE+vdW (tier 2 basis)
C    0.504919  -0.420447  0.908804
C    -0.167165  0.235113  2.098972
O    0.367345  0.282955  3.207436
H    -0.069428  -0.343276  -0.022349
H    0.671371  -1.480237  1.139301
H    1.488863  0.041353  0.762427
N    -1.394636  0.786869  1.849890
C    -2.209134  1.355114  2.910117
C    -3.256010  0.340136  3.395674
O    -4.196859  0.033169  2.661622
H    -1.851906  0.589587  0.967139
H    -1.528130  1.697936  3.695382
H    -2.765833  2.215386  2.517301
N    -3.089617  -0.208458  4.629598
C    -2.016240  0.017855  5.590099
H    -3.829894  -0.856844  4.881865
H    -1.049810  0.110999  5.079169
H    -1.960047  -0.849424  6.257701
H    -2.192787  0.912215  6.207851
