19
Energy: -12425.1264924 eV PBE+vdW (tier 2 basis)
C    0.789388  0.173541  1.440319
C    -0.542306  -0.489033  1.734173
O    -0.640947  -1.700212  1.929866
H    1.214441  -0.279644  0.536218
H    1.478498  -0.038648  2.267014
H    0.724005  1.259350  1.298559
N    -1.621403  0.352615  1.765797
C    -2.978505  -0.104740  2.012581
C    -3.560816  0.503701  3.297236
O    -4.292025  1.493255  3.235938
H    -1.477373  1.343602  1.611739
H    -3.641235  0.219546  1.200770
H    -2.944173  -1.200894  2.028647
N    -3.227441  -0.065992  4.490064
C    -2.342537  -1.184255  4.771214
H    -3.632807  0.424976  5.282586
H    -2.868084  -1.957697  5.349114
H    -1.465303  -0.855389  5.348177
H    -1.974376  -1.635083  3.843989
