19
Energy: -12425.0505694 eV PBE+vdW (tier 2 basis)
C    -0.140099  -0.242905  0.241713
C    -0.119685  0.539120  1.545476
O    0.885596  1.118851  1.946567
H    -0.386241  -1.301373  0.410533
H    0.851145  -0.175075  -0.213488
H    -0.885684  0.160386  -0.458895
N    -1.289596  0.565383  2.257646
C    -2.539343  -0.060326  1.920558
C    -3.554217  0.254537  3.025157
O    -3.253335  0.936359  4.001786
H    -1.296829  1.085022  3.136443
H    -2.943326  0.299939  0.956566
H    -2.448428  -1.158269  1.827427
N    -4.802112  -0.266563  2.857082
C    -5.271939  -1.078220  1.747324
H    -5.448950  -0.037995  3.604239
H    -5.218403  -0.541064  0.788445
H    -6.320259  -1.336935  1.925835
H    -4.707294  -2.017872  1.653584
