19
Energy: -12425.2335598 eV PBE+vdW (tier 2 basis)
C    1.253089  0.704071  1.488709
C    -0.175879  0.574868  1.981990
O    -0.816377  1.532329  2.401971
H    1.839610  1.247683  2.238499
H    1.252789  1.309767  0.573117
H    1.739330  -0.256285  1.275698
N    -0.702959  -0.696897  1.931322
C    -2.092102  -0.977180  2.241060
C    -2.372271  -1.695657  3.568977
O    -3.456491  -2.240183  3.757445
H    -0.143965  -1.433076  1.517060
H    -2.614863  -0.010511  2.279390
H    -2.552698  -1.580895  1.449021
N    -1.363541  -1.654322  4.481300
C    -1.496632  -2.194513  5.819468
H    -0.534191  -1.127012  4.233227
H    -1.519954  -1.396230  6.575401
H    -0.670213  -2.879827  6.051687
H    -2.442684  -2.745128  5.860656
