19
Energy: -12424.9469323 eV PBE+vdW (tier 2 basis)
C    -1.022148  1.134601  0.571669
C    0.000429  0.747312  1.625603
O    0.661279  1.585643  2.232779
H    -0.797620  0.678683  -0.402430
H    -0.998351  2.222584  0.471582
H    -2.038847  0.829458  0.856924
N    0.165487  -0.591955  1.886369
C    -0.484871  -1.731879  1.263174
C    -0.904924  -2.783097  2.302855
O    -0.356070  -3.881599  2.344885
H    0.907093  -0.785306  2.554979
H    -1.358178  -1.381617  0.698649
H    0.183301  -2.253726  0.563229
N    -1.892766  -2.435934  3.180631
C    -2.635317  -1.188361  3.256737
H    -2.087033  -3.153400  3.871690
H    -2.023666  -0.355493  3.632032
H    -3.482031  -1.330186  3.936558
H    -3.047766  -0.905726  2.278085
