19
Energy: -12424.9682508 eV PBE+vdW (tier 2 basis)
C    -0.316558  0.380553  0.305223
C    0.012497  -0.382753  1.571230
O    1.145617  -0.436729  2.042624
H    -0.863923  1.304296  0.541149
H    -0.948882  -0.195789  -0.382853
H    0.623332  0.643693  -0.186437
N    -1.028745  -1.030808  2.198575
C    -2.438242  -0.987150  1.853148
C    -3.126109  0.390840  1.922843
O    -3.810151  0.787605  0.982124
H    -0.746084  -1.512850  3.045498
H    -2.618283  -1.343041  0.830062
H    -2.967102  -1.678206  2.525242
N    -2.952048  1.142837  3.049593
C    -2.269516  0.798413  4.287473
H    -3.419308  2.042569  2.999834
H    -2.625568  1.470669  5.076082
H    -1.177486  0.899766  4.211849
H    -2.506441  -0.225915  4.605743
