19
Energy: -12425.0578308 eV PBE+vdW (tier 2 basis)
C    0.187864  -1.504996  1.153309
C    -0.017603  -0.172673  1.846508
O    0.831668  0.332935  2.572259
H    1.217274  -1.822992  1.336872
H    0.021888  -1.438475  0.068601
H    -0.501665  -2.256372  1.561056
N    -1.206042  0.488687  1.606750
C    -2.385067  -0.036191  0.967718
C    -3.286486  -0.881843  1.896348
O    -2.831960  -1.523157  2.835755
H    -1.319680  1.306142  2.199783
H    -2.956201  0.797835  0.531515
H    -2.091959  -0.681556  0.126672
N    -4.606251  -0.876341  1.545555
C    -5.606152  -1.674809  2.231008
H    -4.896597  -0.293727  0.769290
H    -6.075119  -2.398569  1.549955
H    -6.387985  -1.040764  2.671153
H    -5.096927  -2.218135  3.033893
