19
Energy: -12425.1045256 eV PBE+vdW (tier 2 basis)
C    0.045530  -0.357241  0.246981
C    0.084156  0.211475  1.656457
O    1.056586  0.822913  2.090712
H    0.993314  -0.121600  -0.243463
H    -0.779130  0.074260  -0.338873
H    -0.093169  -1.448155  0.256027
N    -1.030510  0.006324  2.425275
C    -2.239646  -0.684323  2.062099
C    -3.200782  -0.641791  3.260908
O    -2.900564  -0.092692  4.317597
H    -1.024273  0.381364  3.374917
H    -2.740575  -0.219979  1.193634
H    -2.053930  -1.741317  1.798881
N    -4.396716  -1.254539  3.061723
C    -5.415739  -1.300448  4.098656
H    -4.587883  -1.687209  2.166732
H    -5.733444  -0.288572  4.383731
H    -5.036561  -1.802372  4.998626
H    -6.280662  -1.853097  3.718381
