19
Energy: -12425.2602569 eV PBE+vdW (tier 2 basis)
C    -0.065568  0.552593  0.047996
C    0.108740  0.404045  1.550368
O    1.058048  0.886523  2.168304
H    0.770404  1.137265  -0.344651
H    -1.007635  1.064751  -0.191838
H    -0.083100  -0.428345  -0.446752
N    -0.870585  -0.309317  2.175935
C    -0.860261  -0.545254  3.594838
C    -2.096481  -1.373105  3.953486
O    -2.911477  -1.732880  3.103204
H    -1.663510  -0.716382  1.682323
H    0.055029  -1.079415  3.902101
H    -0.865477  0.404959  4.155696
N    -2.226400  -1.678872  5.269824
C    -3.346215  -2.458716  5.771401
H    -1.522517  -1.354034  5.920968
H    -3.236816  -2.576455  6.854123
H    -3.374585  -3.452095  5.303907
H    -4.300499  -1.957958  5.559902
