19
Energy: -12424.9466962 eV PBE+vdW (tier 2 basis)
C    -0.526324  0.585162  -0.022385
C    -0.269575  0.782899  1.461309
O    0.499611  1.643092  1.881529
H    0.051074  1.340226  -0.561648
H    -1.590205  0.700094  -0.271649
H    -0.209037  -0.410537  -0.363035
N    -0.932555  -0.045398  2.335022
C    -1.901585  -1.089360  2.048698
C    -1.646714  -2.345760  2.896614
O    -2.434613  -2.681472  3.777655
H    -0.765146  0.180804  3.312386
H    -2.927836  -0.772677  2.283790
H    -1.859948  -1.333469  0.979730
N    -0.505743  -3.052655  2.641003
C    0.514316  -2.787908  1.639577
H    -0.370875  -3.839334  3.267897
H    1.174090  -3.659715  1.578207
H    1.124718  -1.906280  1.882113
H    0.072308  -2.643702  0.643776
