19
Energy: -12425.2740435 eV PBE+vdW (tier 2 basis)
C    0.311762  0.179800  0.088383
C    -0.535003  0.586637  1.280332
O    -0.864996  1.754357  1.489376
H    -0.203895  0.485376  -0.830432
H    0.519847  -0.896102  0.042066
H    1.261481  0.727500  0.127895
N    -0.908172  -0.429274  2.108336
C    -1.712466  -0.205436  3.279989
C    -1.944761  -1.552795  3.967691
O    -1.480415  -2.602603  3.521807
H    -0.645303  -1.400254  1.950104
H    -1.215796  0.494069  3.973709
H    -2.678242  0.257219  3.014665
N    -2.695230  -1.503907  5.097853
C    -3.006164  -2.697950  5.866955
H    -3.050030  -0.609675  5.413159
H    -2.088894  -3.187965  6.219855
H    -3.564914  -3.422887  5.259931
H    -3.613809  -2.412110  6.731326
