19
Energy: -12425.1886792 eV PBE+vdW (tier 2 basis)
C    -0.767283  1.038612  1.005631
C    -0.213013  -0.103110  1.835461
O    0.718374  0.037231  2.621649
H    -0.260364  1.956684  1.312582
H    -1.851522  1.157127  1.137185
H    -0.582111  0.872628  -0.065328
N    -0.815680  -1.335115  1.677046
C    -1.897220  -1.683235  0.775193
C    -3.335102  -1.461936  1.282184
O    -4.284932  -1.661229  0.530348
H    -0.365112  -2.075985  2.205995
H    -1.814869  -1.136580  -0.173400
H    -1.817238  -2.747624  0.517372
N    -3.441346  -1.051882  2.573651
C    -4.716623  -0.802310  3.216096
H    -2.578782  -0.923976  3.092420
H    -4.787511  0.236675  3.566188
H    -4.870139  -1.475399  4.070991
H    -5.501931  -0.984406  2.474461
