19
Energy: -12425.2093386 eV PBE+vdW (tier 2 basis)
C    0.066103  -0.041365  0.067275
C    -0.119305  0.467832  1.486942
O    0.722477  1.149187  2.072464
H    1.036543  0.299585  -0.302645
H    -0.725191  0.337009  -0.594557
H    0.032889  -1.139126  0.033827
N    -1.297308  0.113850  2.076111
C    -1.632706  0.513067  3.415335
C    -3.011876  -0.046858  3.753629
O    -3.652871  -0.719097  2.944031
H    -2.007161  -0.448102  1.608736
H    -0.884736  0.148159  4.140799
H    -1.632201  1.612421  3.516917
N    -3.488738  0.239268  4.996097
C    -2.823917  1.017775  6.028365
H    -4.406402  -0.147639  5.188203
H    -3.476167  1.058520  6.906293
H    -2.629234  2.051009  5.705354
H    -1.870714  0.564547  6.337895
