24
Energy: -240233.951656 eV PBE+vdW (tier 2 basis)
N    1.422688  -2.971110  2.032936
C    1.082926  -1.596319  2.131564
C    2.165496  -0.760342  1.435753
O    1.827819  0.288564  0.789143
H    0.709283  -3.636184  2.313132
H    2.346754  -3.218783  2.377252
H    0.140270  -1.405204  1.600036
C    0.918305  -0.954068  3.613518
C    -0.249826  -1.504591  4.325062
C    -1.569062  -0.836577  4.214589
C    -0.167255  -2.680167  5.060935
C    -2.726823  -1.473603  4.865142
C    -1.305833  -3.230198  5.664220
C    -2.587367  -2.635505  5.571166
H    0.819990  0.131543  3.475948
H    1.848782  -1.169554  4.154365
H    -1.811250  -0.613992  3.153633
H    0.793291  -3.179787  5.185072
H    -3.695518  -0.979458  4.779217
H    -1.199434  -4.155244  6.234119
H    -3.439450  -3.102291  6.062536
O    3.384493  -1.138998  1.506163
H    -1.483516  0.197328  4.618160
Ba    4.103237  0.522540  -0.196660
