24
Energy: -240234.318701 eV PBE+vdW (tier 2 basis)
N    -0.044753  -0.064184  0.209449
C    -0.088578  0.015893  1.695127
C    1.325789  0.045405  2.236853
O    2.272671  -0.435405  1.579714
H    -0.138073  0.882604  -0.172869
H    -0.918619  -0.545683  -0.067877
H    -0.638394  0.913062  2.020045
C    -0.818523  -1.243894  2.283395
C    -2.146241  -1.461867  1.604211
C    -2.278968  -2.454978  0.619376
C    -3.254638  -0.660771  1.918551
C    -3.496627  -2.645820  -0.038847
C    -4.468667  -0.852160  1.261489
C    -4.589956  -1.840150  0.279626
H    -0.938400  -1.097563  3.365864
H    -0.174474  -2.128142  2.153718
H    -1.444464  -3.131816  0.413673
H    -3.180662  0.099655  2.698457
H    -3.597988  -3.437275  -0.780358
H    -5.328629  -0.237984  1.525218
H    -5.543645  -1.992403  -0.223777
O    1.582844  0.501745  3.436176
H    0.802301  0.880217  3.888658
Ba    2.294143  -1.257845  -0.717010
