24
Energy: -240233.712079 eV PBE+vdW (tier 2 basis)
N    -0.930880  -0.523808  -0.026385
C    -0.519446  -0.634805  1.345800
C    0.965920  -0.333979  1.452757
O    1.658144  0.169453  0.542391
H    -1.887802  -0.191929  -0.117974
H    -0.838527  -1.395706  -0.545673
H    -0.971486  0.206766  1.907754
C    -0.920189  -1.945450  2.112690
C    -0.588733  -1.947082  3.588906
C    -1.272200  -1.096855  4.480813
C    0.406660  -2.803879  4.106749
C    -0.966899  -1.100617  5.838744
C    0.709337  -2.805277  5.474957
C    0.026630  -1.951596  6.338515
H    -0.459690  -2.808129  1.609468
H    -2.004821  -2.039709  1.968863
H    -2.072857  -0.452488  4.112984
H    0.902425  -3.515360  3.442486
H    -1.519046  -0.452202  6.518043
H    1.456505  -3.496767  5.862641
H    0.248263  -1.961570  7.404868
O    1.635403  -0.575185  2.594385
H    1.075214  -1.129365  3.260303
Ba    3.925074  0.620539  1.338916
