24
Energy: -240235.063345 eV PBE+vdW (tier 2 basis)
N    1.434207  -2.647239  -0.122809
C    1.233385  -1.151190  -0.192486
C    2.472652  -0.456873  0.358412
O    2.601403  0.792326  0.162309
H    1.806969  -3.042497  -0.993737
H    2.100713  -2.858886  0.638876
H    1.088502  -0.877717  -1.244503
C    -0.042713  -0.775179  0.621603
C    -1.190312  -1.679062  0.244986
C    -1.461961  -2.825282  1.015874
C    -1.943849  -1.440642  -0.914265
C    -2.473065  -3.713863  0.633052
C    -2.953960  -2.325374  -1.288439
C    -3.215038  -3.464886  -0.520642
H    -0.258306  0.279001  0.406905
H    0.175729  -0.857689  1.696878
H    -0.931124  -2.990322  1.957769
H    0.498182  -3.084401  0.074335
H    -2.691122  -4.585255  1.249063
H    -3.548058  -2.121439  -2.178377
H    -4.009155  -4.149258  -0.815774
O    3.315865  -1.134932  1.042954
H    -1.758530  -0.547688  -1.514068
Ba    4.717584  0.984344  1.461084
