24
Energy: -240235.34771 eV PBE+vdW (tier 2 basis)
N    -0.074502  0.809475  0.353988
C    -0.237648  -0.048640  1.597045
C    1.138138  -0.676018  1.853860
O    1.327858  -1.269601  2.946699
H    0.136897  1.788656  0.590424
H    -0.899890  0.805287  -0.258347
H    -0.544619  0.605785  2.419124
C    -1.285617  -1.196023  1.411242
C    -0.727084  -2.557508  1.035453
C    -0.222103  -2.834306  -0.248155
C    -0.700821  -3.586076  1.996796
C    0.305089  -4.094390  -0.562030
C    -0.185894  -4.852558  1.686533
C    0.324954  -5.109643  0.405241
H    -2.042110  -0.879056  0.676105
H    -1.819793  -1.283605  2.364201
H    -0.258987  -2.074759  -1.030414
H    -1.104654  -3.400827  2.992655
H    0.657736  -4.296234  -1.573489
H    -0.222107  -5.647576  2.432061
H    0.686907  -6.105193  0.147155
O    1.933329  -0.730453  0.855692
H    0.761271  0.412691  -0.136619
Ba    2.609709  -3.111243  1.746170
