33
Energy: -106970.811267 eV PBE+vdW (tier 2 basis)
C    0.474104  0.472236  1.835642
C    -0.169992  -0.759362  2.383987
O    0.242932  -1.283012  3.468980
H    1.539244  0.446362  2.094434
H    0.052624  1.373625  2.308267
H    0.358709  0.564371  0.750809
N    -1.232021  -1.312545  1.762264
C    -2.294249  -0.554902  1.123538
C    -2.920167  0.377583  2.185982
O    -2.727328  0.161811  3.427856
H    -1.440238  -2.298171  1.955771
H    -1.894115  0.039121  0.288844
C    -3.380343  -1.544170  0.580945
C    -2.758716  -2.754481  -0.064897
C    -2.160865  -2.671643  -1.330462
C    -2.732708  -3.976955  0.625262
C    -1.547856  -3.789940  -1.891928
C    -2.114826  -5.096851  0.062711
C    -1.518405  -5.001355  -1.194340
H    -4.016290  -0.990887  -0.123127
H    -4.026251  -1.855016  1.415907
H    -2.191657  -1.736297  -1.892710
H    -3.253592  -4.072800  1.582179
H    -1.100552  -3.721569  -2.882723
H    -2.119580  -6.046990  0.595363
H    -1.044944  -5.874643  -1.640745
N    -3.696356  1.360221  1.767337
C    -4.439476  2.271263  2.644483
H    -3.798204  1.488639  0.763364
H    -5.087756  2.894818  2.023788
H    -3.748694  2.916022  3.201243
H    -5.054591  1.700677  3.349075
Sr    -1.457842  -0.971159  5.011900
