33
Energy: -106971.135718 eV PBE+vdW (tier 2 basis)
C    0.164014  0.517225  -0.066401
C    -0.318497  0.171092  1.303633
O    0.196458  0.746797  2.331489
H    0.067534  1.598103  -0.233250
H    -0.376086  -0.018583  -0.852931
H    1.233250  0.272784  -0.137920
N    -1.267040  -0.733294  1.437810
C    -1.812501  -1.313132  2.657553
C    -2.499559  -2.616729  2.125686
O    -2.730997  -2.688574  0.918214
H    -1.674680  -1.231346  0.619346
H    -0.993873  -1.555260  3.351236
C    -2.874822  -0.408808  3.345053
C    -2.369732  0.653107  4.292635
C    -1.716179  0.304387  5.495818
C    -2.628328  2.019803  4.059485
C    -1.372459  1.277641  6.447675
C    -2.285782  2.999129  5.007465
C    -1.661775  2.632503  6.211113
H    -3.552156  -1.056734  3.920834
H    -3.491930  0.046222  2.559785
H    -1.524546  -0.745823  5.722194
H    -3.146992  2.318663  3.147394
H    -0.918113  0.973555  7.391491
H    -2.543458  4.042599  4.821699
H    -1.441147  3.383750  6.969619
N    -2.826136  -3.577711  3.008693
C    -2.524917  -3.649631  4.432710
H    -3.308509  -4.369076  2.587176
H    -2.631343  -4.689718  4.755145
H    -3.213004  -3.041772  5.039372
H    -1.488193  -3.352799  4.639753
Sr    0.367504  1.979636  4.163166
