33
Energy: -106970.814916 eV PBE+vdW (tier 2 basis)
C    0.451474  0.777242  1.688651
C    -0.084198  -0.481663  2.288807
O    0.428830  -0.972170  3.345278
H    -0.016048  1.658722  2.155863
H    0.286577  0.833141  0.607469
H    1.524563  0.832837  1.905030
N    -1.159421  -1.096568  1.750143
C    -2.293936  -0.409643  1.159128
C    -2.905673  0.517467  2.235563
O    -2.641777  0.324250  3.467940
H    -1.289997  -2.097645  1.937913
H    -1.976151  0.180601  0.286976
C    -3.359203  -1.467513  0.709373
C    -2.714388  -2.673594  0.078554
C    -2.195512  -2.618928  -1.222831
C    -2.581413  -3.859972  0.818491
C    -1.555251  -3.728758  -1.770690
C    -1.936015  -4.971173  0.269218
C    -1.418802  -4.903098  -1.024142
H    -4.053768  -0.971621  0.018284
H    -3.947832  -1.773678  1.587202
H    -2.309420  -1.713446  -1.821887
H    -3.043359  -3.939058  1.806793
H    -1.169994  -3.683384  -2.788503
H    -1.858521  -5.894730  0.841541
H    -0.924398  -5.770207  -1.459754
N    -3.735403  1.459840  1.825202
C    -4.499810  2.372671  2.677156
H    -3.878259  1.547408  0.820629
H    -4.255477  2.179540  3.723430
H    -5.572866  2.214522  2.515031
H    -4.248498  3.409148  2.422886
Sr    -1.230346  -0.769764  4.956859
