33
Energy: -106970.949951 eV PBE+vdW (tier 2 basis)
C    -0.742209  -0.733430  0.018414
C    -0.279846  -0.412431  1.402049
O    0.935011  -0.587642  1.736917
H    -0.491835  0.086014  -0.673219
H    -1.818256  -0.924055  -0.040550
H    -0.193478  -1.618599  -0.325937
N    -1.145475  0.077156  2.317368
C    -2.111156  1.130045  2.011646
C    -1.310378  2.461783  1.877041
O    -0.029097  2.447332  1.873836
H    -0.774298  0.100343  3.268543
H    -2.545105  0.920365  1.023003
C    -3.254724  1.155755  3.055658
C    -4.395403  2.086564  2.701598
C    -4.681189  3.201962  3.505524
C    -5.193066  1.842994  1.571026
C    -5.735987  4.059837  3.181886
C    -6.242155  2.702033  1.246862
C    -6.513092  3.813680  2.049789
H    -2.844689  1.424214  4.041052
H    -3.620059  0.121074  3.132038
H    -4.090915  3.387591  4.404940
H    -5.017167  0.960723  0.951519
H    -5.957434  4.911390  3.824027
H    -6.861203  2.495251  0.374848
H    -7.339637  4.477400  1.799916
N    -1.990276  3.578685  1.747422
C    -1.397873  4.908073  1.595018
H    -3.011545  3.507428  1.846850
H    -0.742363  4.935012  0.716987
H    -0.822033  5.181872  2.487781
H    -2.208783  5.627850  1.458361
Sr    2.024354  1.431486  2.040221
