33
Energy: -106971.332032 eV PBE+vdW (tier 2 basis)
C    -0.666557  2.635446  1.771943
C    -1.057388  1.212606  1.540516
O    -0.721184  0.626029  0.465811
H    -0.856832  2.980513  2.793373
H    -1.248294  3.261555  1.078629
H    0.392662  2.776793  1.526627
N    -1.772688  0.596598  2.491402
C    -2.519746  -0.675918  2.427666
C    -1.611796  -1.909372  2.424523
O    -0.882649  -2.180645  1.416147
H    -2.015524  1.182277  3.285409
H    -3.098009  -0.683550  3.357517
C    -3.555444  -0.737910  1.269129
C    -4.480456  0.453772  1.283116
C    -5.536284  0.519706  2.203047
C    -4.277266  1.523238  0.401382
C    -6.367944  1.638390  2.243388
C    -5.111716  2.641495  0.438245
C    -6.154444  2.702167  1.363754
H    -4.115432  -1.677581  1.389418
H    -3.044554  -0.799529  0.296557
H    -5.731354  -0.317104  2.877536
H    -3.478851  1.473240  -0.342689
H    -7.194420  1.673492  2.951932
H    -4.957974  3.459120  -0.265122
H    -6.811206  3.570535  1.389486
N    -1.637235  -2.740830  3.455474
C    -2.393306  -2.636702  4.710576
H    -1.055472  -3.571053  3.339477
H    -2.053131  -3.438198  5.371972
H    -3.468911  -2.766909  4.538687
H    -2.201176  -1.681003  5.211083
Sr    -0.108884  -1.300796  -0.537674
