33
Energy: -106971.223678 eV PBE+vdW (tier 2 basis)
C    0.326148  0.960028  0.508931
C    -0.259461  0.133323  1.606150
O    0.450751  -0.162439  2.636126
H    1.187099  0.424820  0.083935
H    0.703479  1.907345  0.915815
H    -0.390646  1.170772  -0.290597
N    -1.502144  -0.289432  1.493469
C    -2.243101  -1.210091  2.345051
C    -3.378722  -1.706950  1.376732
O    -3.594758  -1.043143  0.361746
H    -2.071440  -0.101352  0.640681
H    -1.593814  -2.048433  2.642021
C    -2.876359  -0.529716  3.590031
C    -1.977232  -0.276265  4.777899
C    -1.545345  -1.340391  5.600682
C    -1.630685  1.034294  5.166631
C    -0.840107  -1.103384  6.791779
C    -0.920531  1.278850  6.354190
C    -0.530184  0.211304  7.179794
H    -3.700861  -1.171282  3.935107
H    -3.340383  0.410477  3.264228
H    -1.816441  -2.366159  5.344751
H    -1.962980  1.878343  4.560669
H    -0.573042  -1.940952  7.437464
H    -0.712178  2.306177  6.655706
H    -0.029589  0.402328  8.129211
N    -4.051235  -2.806396  1.745812
C    -5.155018  -3.368640  0.964016
H    -3.743764  -3.322687  2.563084
H    -4.855288  -4.319355  0.506394
H    -5.416277  -2.657266  0.176396
H    -6.023647  -3.533825  1.611257
Sr    1.088756  -0.204901  4.754839
