33
Energy: -106970.871005 eV PBE+vdW (tier 2 basis)
C    -1.113803  0.503693  -0.148578
C    -0.988437  0.330222  1.328872
O    0.150244  0.423305  1.900427
H    -0.495757  -0.253881  -0.650615
H    -0.718525  1.486000  -0.439590
H    -2.144893  0.415092  -0.506052
N    -2.076081  0.066063  2.047439
C    -2.092796  -0.169847  3.496086
C    -3.395897  -0.952316  3.885154
O    -4.158557  -0.470807  4.711460
H    -2.966687  0.025008  1.555125
H    -1.224456  -0.808640  3.723386
C    -2.027934  1.139056  4.314694
C    -0.684939  1.521570  4.863682
C    0.072670  0.626535  5.656390
C    -0.161181  2.819229  4.665690
C    1.292949  1.014168  6.230873
C    1.056656  3.214197  5.244737
C    1.795897  2.310762  6.025252
H    -2.739829  0.991067  5.148854
H    -2.445563  1.961622  3.721255
H    -0.318424  -0.368886  5.873478
H    -0.734664  3.542260  4.083335
H    1.833494  0.315607  6.870737
H    1.413148  4.235851  5.107271
H    2.723718  2.624405  6.503496
N    -3.616281  -2.139836  3.269176
C    -2.740833  -2.920810  2.401950
H    -4.495091  -2.571169  3.549743
H    -1.684264  -2.745985  2.638914
H    -2.909796  -2.711824  1.335647
H    -2.938890  -3.984387  2.571725
Sr    1.775805  1.104671  3.306985
