33
Energy: -106971.177666 eV PBE+vdW (tier 2 basis)
C    -0.161953  1.700787  1.191486
C    -0.239185  0.499872  2.083811
O    0.777233  -0.261214  2.203083
H    0.219175  1.413064  0.203948
H    0.569264  2.399834  1.623421
H    -1.119172  2.219837  1.077113
N    -1.394211  0.287285  2.713054
C    -1.841441  -0.588638  3.802417
C    -1.171144  -1.935733  3.978360
O    -0.672254  -2.603660  3.014038
H    -2.142294  0.957669  2.491824
H    -1.716100  -0.020496  4.737126
C    -3.383969  -0.824395  3.595551
C    -4.119739  0.482107  3.426161
C    -4.487731  0.927749  2.145692
C    -4.414490  1.285487  4.538541
C    -5.139498  2.153450  1.982772
C    -5.064860  2.506845  4.374016
C    -5.424110  2.944306  3.095780
H    -3.765685  -1.376632  4.463563
H    -3.515918  -1.466408  2.713727
H    -4.306574  0.292790  1.275556
H    -4.156834  0.946419  5.544217
H    -5.441089  2.479054  0.987984
H    -5.304489  3.114810  5.245409
H    -5.939922  3.895429  2.971438
N    -1.193794  -2.472993  5.196657
C    -1.702232  -1.912351  6.453621
H    -0.868269  -3.437916  5.230646
H    -1.330614  -0.893249  6.609283
H    -1.334559  -2.536875  7.272591
H    -2.799047  -1.914936  6.480869
Sr    1.239500  -2.427298  1.786248
