33
Energy: -106971.129958 eV PBE+vdW (tier 2 basis)
C    -0.676381  1.305765  0.043220
C    -0.413160  0.428793  1.224355
O    0.673793  -0.230876  1.305887
H    0.071313  2.112503  0.040819
H    -1.676387  1.751144  0.050639
H    -0.534163  0.738268  -0.884874
N    -1.340388  0.371720  2.182280
C    -1.222781  -0.193637  3.534541
C    -1.470399  -1.723308  3.540149
O    -0.671557  -2.420742  2.821218
H    -2.193392  0.923957  2.051136
H    -0.155506  -0.142695  3.808277
C    -1.975959  0.737148  4.505998
C    -3.321532  1.278580  4.053069
C    -3.720124  2.531294  4.544123
C    -4.192961  0.596416  3.184256
C    -4.954405  3.076612  4.197366
C    -5.427001  1.149004  2.826964
C    -5.811505  2.387747  3.335999
H    -1.310012  1.594170  4.679855
H    -2.052041  0.241541  5.484881
H    -3.058208  3.083793  5.212704
H    -3.936452  -0.383716  2.773329
H    -5.245959  4.046793  4.597486
H    -6.087624  0.604049  2.153772
H    -6.773656  2.817384  3.061210
N    -2.358017  -2.373823  4.275995
C    -3.382039  -1.966536  5.247902
H    -2.263428  -3.384747  4.164136
H    -3.872600  -1.036546  4.954392
H    -2.940559  -1.869164  6.247927
H    -4.134918  -2.760165  5.276043
Sr    1.266008  -2.388726  1.620948
