33
Energy: -106970.821652 eV PBE+vdW (tier 2 basis)
C    -0.687688  0.271523  -0.180672
C    -0.645244  0.266763  1.310264
O    0.360645  0.747446  1.934372
H    -1.616710  -0.143362  -0.585047
H    0.159305  -0.315097  -0.563725
H    -0.561628  1.298161  -0.549084
N    -1.663528  -0.253522  1.995568
C    -1.647613  -0.389946  3.454003
C    -2.370381  -1.619253  4.064584
O    -1.783351  -2.147017  5.005021
H    -2.445395  -0.631240  1.466660
H    -0.607257  -0.626668  3.704623
C    -2.047400  0.921865  4.204501
C    -0.882906  1.595869  4.889437
C    -0.043253  0.859384  5.757216
C    -0.611823  2.966800  4.703711
C    1.028867  1.479472  6.417674
C    0.462204  3.588981  5.363877
C    1.290471  2.846460  6.220723
H    -2.792400  0.675877  4.976014
H    -2.535996  1.615784  3.509542
H    -0.256166  -0.197968  5.940370
H    -1.260430  3.562059  4.058826
H    1.640824  0.901416  7.111191
H    0.632715  4.657856  5.229847
H    2.103428  3.334285  6.758717
N    -3.582752  -2.017307  3.617692
C    -4.464497  -1.395443  2.636919
H    -3.936336  -2.836349  4.109146
H    -4.396213  -0.300257  2.666788
H    -5.500376  -1.648736  2.885203
H    -4.282544  -1.760968  1.612626
Sr    1.714425  1.631131  3.510414
