33
Energy: -106971.227161 eV PBE+vdW (tier 2 basis)
C    -0.684234  -3.409334  0.248462
C    -0.812986  -2.203973  1.117294
O    0.112299  -1.333376  1.167574
H    -0.574106  -3.082327  -0.795265
H    -1.539140  -4.089299  0.320686
H    0.233784  -3.952010  0.510524
N    -1.927460  -2.038705  1.845509
C    -2.211579  -0.815512  2.609931
C    -1.327622  -0.730104  3.875511
O    -0.323842  0.057886  3.834975
H    -2.669668  -2.727342  1.744220
H    -1.854204  0.022953  1.994931
C    -3.716836  -0.565225  2.822420
C    -3.931339  0.798037  3.446360
C    -4.231096  0.931645  4.806978
C    -3.810299  1.954029  2.660612
C    -4.396721  2.195476  5.376799
C    -3.975754  3.217046  3.228102
C    -4.263576  3.339385  4.589658
H    -4.178960  -1.349887  3.433909
H    -4.191664  -0.611582  1.830324
H    -4.376672  0.044878  5.425973
H    -3.632424  1.868629  1.585428
H    -4.649308  2.285043  6.432570
H    -3.907659  4.106680  2.602930
H    -4.407365  4.324810  5.030590
N    -1.539381  -1.451387  4.964004
C    -2.549458  -2.470911  5.250964
H    -0.888193  -1.244432  5.722298
H    -2.863244  -2.984830  4.339563
H    -3.422411  -2.030569  5.748039
H    -2.101658  -3.211489  5.921737
Sr    1.223774  0.386802  2.185390
