25
Energy: -566923.202614 eV PBE+vdW (tier 2 basis)
N    0.309555  1.470584  1.126583
C    0.506486  0.370708  2.081881
C    1.982097  -0.133397  2.062952
O    2.913029  0.470206  1.534848
H    -0.047688  1.146874  0.222336
H    -0.314199  2.197806  1.483395
H    0.377341  0.797889  3.089735
C    -0.523001  -0.784020  1.839611
C    -0.982939  -1.585984  3.075716
C    -1.925107  -0.825918  4.025533
C    -2.421533  -1.691438  5.201455
N    -3.292901  -2.749523  4.814931
H    -0.119383  -1.468065  1.078300
H    -1.419338  -0.329270  1.393650
H    -0.139625  -1.991062  3.666637
H    -1.500749  -2.478006  2.691754
H    -2.791998  -0.445643  3.462069
H    -1.433509  0.053538  4.467327
H    -2.960065  -1.008884  5.903147
H    -1.591789  -2.113113  5.787001
H    -3.347721  -3.599424  5.372381
H    -4.098068  -2.564348  4.219123
O    2.253992  -1.259744  2.684663
H    1.456361  -1.693090  3.050922
Hg    2.418130  2.582392  0.523527
