25
Energy: -566924.040597 eV PBE+vdW (tier 2 basis)
N    1.200052  0.123638  1.127508
C    0.440912  -0.589346  2.124581
C    1.252303  -1.200603  3.338355
O    2.401130  -1.585999  3.217687
H    -2.769210  -0.359022  -1.948012
H    1.487769  1.035017  1.517919
H    -0.220878  0.171556  2.585701
C    -0.358708  -1.754947  1.493806
C    -1.341781  -1.369543  0.372294
C    -2.594829  -0.612060  0.847676
C    -3.791453  -0.671122  -0.097616
N    -3.553026  0.051132  -1.421880
H    -0.896026  -2.299667  2.285102
H    0.369561  -2.473986  1.085598
H    -1.651080  -2.313728  -0.102791
H    -0.793923  -0.793948  -0.390528
H    -2.367976  0.438464  1.092284
H    -2.965817  -1.061063  1.782709
H    -4.674630  -0.194268  0.343622
H    -4.052363  -1.703128  -0.364627
H    -4.387136  -0.002643  -2.024972
H    -3.344673  1.049290  -1.276811
O    0.622266  -1.357943  4.488347
H    -0.277134  -0.978705  4.490185
Hg    3.157907  -0.804533  0.934947
