25
Energy: -566923.78318 eV PBE+vdW (tier 2 basis)
N    -1.488267  0.442672  0.076172
C    -0.779535  0.167625  1.398552
C    0.688079  0.667186  1.194786
O    1.472656  0.481671  2.172406
H    -1.610198  -0.415359  -0.479057
H    -2.411965  0.876476  0.200963
H    -1.223448  0.847951  2.140533
C    -0.959893  -1.292972  1.832633
C    -0.459335  -1.577965  3.258775
C    -1.076195  -2.812690  3.937280
C    -0.607776  -4.181400  3.297757
N    -1.092753  -5.296596  4.021204
H    -0.474267  -1.954446  1.097429
H    -2.043556  -1.499493  1.789509
H    -0.718348  -0.723803  3.907041
H    0.636088  -1.647930  3.271939
H    -2.174964  -2.776048  3.915622
H    -0.772604  -2.821364  4.992085
H    0.492425  -4.195811  3.303668
H    -0.974265  -4.242184  2.263115
H    -2.003327  -5.705300  3.827380
H    -0.609912  -5.641586  4.847411
O    0.940552  1.242678  0.115630
H    -0.856233  1.080332  -0.460492
Hg    3.318195  1.593486  1.220801
