25
Energy: -566923.438351 eV PBE+vdW (tier 2 basis)
N    0.303576  -0.417817  0.032327
C    -0.103512  -0.215296  1.380197
C    1.169897  0.201546  2.249236
O    1.054798  0.425040  3.453169
H    0.309821  -1.366504  -0.333548
H    0.011798  0.269835  -0.658731
H    -0.726002  0.692074  1.446782
C    -0.858673  -1.385330  2.048214
C    -0.100403  -2.710330  2.190150
C    -0.973757  -3.937007  2.472675
C    -1.729868  -3.840177  3.871963
N    -2.505934  -4.979289  4.146465
H    -1.773773  -1.529992  1.454046
H    -1.163377  -1.015913  3.041559
H    0.690118  -2.625656  2.951445
H    0.415345  -2.962028  1.245315
H    -0.352649  -4.840955  2.507955
H    -1.728194  -4.075071  1.685525
H    -2.393468  -2.957753  3.799307
H    -0.990881  -3.695141  4.669071
H    -2.190707  -5.702173  4.790129
H    -3.378173  -5.161709  3.653223
O    2.292897  0.329804  1.602843
H    2.106739  0.098742  0.650150
Hg    2.923553  1.452117  4.740948
