25
Energy: -566924.553764 eV PBE+vdW (tier 2 basis)
N    0.460589  0.515375  0.402591
C    -0.584635  0.077009  1.419618
C    0.083917  -0.349650  2.724914
O    -0.643037  -0.572397  3.695758
H    0.058826  0.593119  -0.543573
H    0.858766  1.434819  0.647208
H    -1.251816  0.932308  1.579512
C    -1.404898  -1.157101  0.949311
C    -0.683201  -2.535665  0.919611
C    -1.406457  -3.717251  1.615459
C    -1.547362  -3.788204  3.141514
N    -0.281885  -4.149915  3.912662
H    -1.825849  -0.927329  -0.041374
H    -2.265760  -1.180682  1.630594
H    0.354019  -2.449964  1.285105
H    -0.559552  -2.843369  -0.127213
H    -0.945532  -4.652121  1.259103
H    -2.439003  -3.761275  1.235862
H    -2.262464  -4.589725  3.381968
H    -1.935546  -2.862111  3.584498
H    -0.521377  -4.386764  4.883168
H    0.178655  -4.975588  3.509481
O    1.339646  -0.705727  2.623072
H    1.247293  -0.152815  0.383274
Hg    1.064284  -2.440283  3.920020
