25
Energy: -566923.403725 eV PBE+vdW (tier 2 basis)
N    1.214054  0.569916  0.299103
C    0.611554  0.132652  1.510379
C    1.759268  -0.394411  2.490358
O    1.467881  -0.853942  3.594790
H    1.105542  -0.011361  -0.528080
H    1.199934  1.566288  0.093363
H    0.233048  1.005987  2.067150
C    -0.531111  -0.901247  1.394241
C    -0.229581  -2.206285  0.648993
C    -1.472708  -3.121354  0.668974
C    -1.256214  -4.469174  -0.056797
N    -1.236617  -4.387239  -1.469394
H    -1.368183  -0.375979  0.910824
H    -0.848338  -1.122593  2.425403
H    0.619099  -2.732286  1.115506
H    0.049764  -2.016037  -0.400340
H    -2.337529  -2.604531  0.225212
H    -1.752521  -3.354507  1.705507
H    -2.126280  -5.107326  0.249364
H    -0.361902  -5.005829  0.288188
H    -0.669601  -5.024073  -2.025944
H    -1.969944  -3.887695  -1.971165
O    2.985148  -0.255135  2.076363
H    2.935678  0.146099  1.163655
Hg    3.174547  -1.313180  5.303755
