25
Energy: -566924.784246 eV PBE+vdW (tier 2 basis)
N    0.770961  0.520808  0.160996
C    -0.082497  0.008794  1.309543
C    0.925505  -0.504810  2.357161
O    0.345160  -0.802831  3.511691
H    0.374795  0.313746  -0.764713
H    0.918959  1.538264  0.218658
H    -0.689177  0.842312  1.679967
C    -1.008793  -1.177212  0.917840
C    -0.359000  -2.584134  0.777272
C    -1.183373  -3.740883  1.407686
C    -0.354068  -4.946897  1.885053
N    0.128671  -4.841826  3.334705
H    -1.552239  -0.906937  0.000564
H    -1.776122  -1.196685  1.703608
H    0.662266  -2.575590  1.200872
H    -0.189242  -2.821534  -0.281556
H    -1.907948  -4.115741  0.672327
H    -1.812475  -3.377784  2.240142
H    0.541366  -5.090690  1.268414
H    -0.946761  -5.869987  1.839836
H    -0.604611  -5.171752  3.975020
H    0.944129  -5.447297  3.491522
O    2.071163  -0.751765  2.017701
H    1.704287  0.062045  0.272449
Hg    0.545044  -2.812614  3.820240
