25
Energy: -566923.345004 eV PBE+vdW (tier 2 basis)
N    0.276808  0.183124  0.217994
C    0.335650  -0.173559  1.636518
C    1.685239  -0.860526  1.999087
O    2.350089  -1.520077  1.206233
H    -0.667511  0.126597  -0.170187
H    0.665323  1.107399  0.011045
H    0.292511  0.756561  2.232193
C    -0.820682  -1.119646  2.042179
C    -2.198648  -0.433315  2.042793
C    -3.390018  -1.349207  2.344518
C    -3.468573  -1.813186  3.861804
N    -4.637933  -2.553283  4.146587
H    -0.594370  -1.519478  3.041215
H    -0.817199  -1.987711  1.362125
H    -2.406475  0.001434  1.048617
H    -2.190882  0.420945  2.738308
H    -3.378138  -2.247700  1.711627
H    -4.319131  -0.806545  2.128632
H    -3.454276  -0.907465  4.486095
H    -2.591833  -2.438283  4.085884
H    -4.679261  -3.561506  4.019428
H    -5.506124  -2.094178  4.412565
O    2.094856  -0.781369  3.247975
H    1.552832  -0.186789  3.803062
Hg    1.672353  -1.383303  -1.117412
