25
Energy: -566923.311774 eV PBE+vdW (tier 2 basis)
N    0.416278  0.250408  0.113878
C    -0.221181  -0.004881  1.406619
C    0.695565  0.427849  2.588617
O    1.922275  0.443200  2.530576
H    0.266672  1.198513  -0.242070
H    0.142543  -0.423804  -0.604700
H    -1.126783  0.623897  1.479694
C    -0.561233  -1.503433  1.588917
C    -1.695639  -2.060037  0.704441
C    -3.109504  -1.652178  1.148157
C    -4.219909  -2.320584  0.307899
N    -4.380860  -3.712020  0.551017
H    -0.803988  -1.681712  2.646770
H    0.360765  -2.078761  1.401553
H    -1.611134  -3.156243  0.733207
H    -1.543545  -1.788553  -0.354469
H    -3.261216  -0.565789  1.063218
H    -3.261996  -1.904933  2.209564
H    -4.081272  -2.161921  -0.771061
H    -5.172278  -1.793746  0.564573
H    -4.469939  -4.065177  1.502343
H    -4.729094  -4.327508  -0.180973
O    0.121105  0.731706  3.732158
H    -0.855397  0.743345  3.692507
Hg    2.875424  0.033836  0.356456
