25
Energy: -566924.61632 eV PBE+vdW (tier 2 basis)
N    0.628520  -0.167899  -0.074725
C    0.026114  -0.032947  1.314635
C    1.116704  -0.141197  2.379395
O    0.946024  0.478443  3.441201
H    1.268770  -0.978880  -0.104543
H    -0.101698  -0.300748  -0.791195
H    -0.435553  0.958733  1.373400
C    -1.016315  -1.168194  1.550519
C    -1.320559  -1.541677  3.032721
C    -0.631488  -2.853149  3.480819
C    -0.510764  -3.149455  4.981033
N    0.550043  -2.363078  5.736112
H    -0.669305  -2.071060  1.023032
H    -1.945297  -0.850088  1.058755
H    -2.405115  -1.672842  3.130247
H    -1.070894  -0.695075  3.687570
H    0.374428  -2.958146  3.028863
H    -1.191886  -3.700778  3.057579
H    -0.247632  -4.205110  5.110586
H    -1.462236  -2.969028  5.502539
H    0.150706  -1.535177  6.193143
H    0.963588  -2.938071  6.478235
O    2.011387  -1.058200  2.187234
H    1.173284  0.667239  -0.339142
Hg    2.063174  -1.527617  4.368989
