25
Energy: -566924.635206 eV PBE+vdW (tier 2 basis)
N    0.358103  -0.648408  0.071022
C    0.375053  -0.081366  1.479389
C    1.563567  -0.754904  2.180986
O    1.926372  -0.109479  3.277701
H    -0.589849  -0.728059  -0.320828
H    0.918486  -0.076003  -0.576599
H    0.505929  1.004370  1.408939
C    -0.935514  -0.385901  2.260107
C    -1.418125  -1.847658  2.456265
C    -0.726653  -2.798247  3.466256
C    -0.934573  -2.490284  4.965355
N    0.324552  -2.726967  5.786415
H    -1.739425  0.157115  1.739580
H    -0.830901  0.140828  3.220061
H    -1.425326  -2.374896  1.489549
H    -2.482037  -1.776745  2.726291
H    0.350053  -2.878702  3.234234
H    -1.104590  -3.809955  3.265586
H    -1.718492  -3.129546  5.395875
H    -1.230220  -1.448948  5.149116
H    0.180213  -2.484802  6.775056
H    0.615992  -3.712613  5.758554
O    1.958372  -1.844124  1.789904
H    0.807355  -1.587555  0.123917
Hg    1.784658  -1.477151  4.816267
