25
Energy: -566923.394688 eV PBE+vdW (tier 2 basis)
N    0.116375  -0.019421  -0.102380
C    0.117395  -0.137160  1.352417
C    1.538142  -0.461928  1.924218
O    2.445239  -0.966002  1.273940
H    -0.627562  -0.553826  -0.553697
H    0.091996  0.945432  -0.439807
H    -0.136125  0.852824  1.771378
C    -0.867920  -1.221880  1.864210
C    -2.344299  -0.776397  1.857772
C    -3.237871  -1.873727  2.453056
C    -4.739780  -1.454676  2.574825
N    -5.453677  -1.429423  1.351722
H    -0.580565  -1.503790  2.887561
H    -0.726680  -2.133833  1.261153
H    -2.677657  -0.532137  0.837033
H    -2.447051  0.144757  2.452161
H    -2.910754  -2.121658  3.472772
H    -3.169092  -2.802091  1.866352
H    -4.846223  -0.487756  3.080488
H    -5.186771  -2.228913  3.239467
H    -5.593345  -2.284962  0.817854
H    -6.069396  -0.654825  1.117720
O    1.745094  -0.208798  3.199436
H    0.998233  0.240050  3.642089
Hg    2.179977  -1.019921  -1.129687
