25
Energy: -566923.784446 eV PBE+vdW (tier 2 basis)
N    0.248240  0.394408  0.478437
C    -0.009434  -0.164663  1.873965
C    1.333263  0.024925  2.654496
O    1.370073  -0.503373  3.805038
H    0.470659  -0.349128  -0.197230
H    -0.543807  0.936297  0.110944
H    -0.727928  0.519461  2.350740
C    -0.551677  -1.593772  1.861780
C    -1.938086  -1.702294  1.204840
C    -2.724765  -2.980778  1.545171
C    -2.139621  -4.284429  0.875124
N    -2.965196  -5.412520  1.105902
H    -0.607830  -1.898067  2.916903
H    0.185084  -2.262876  1.388440
H    -1.870363  -1.597307  0.109284
H    -2.568337  -0.866292  1.554560
H    -3.759867  -2.860497  1.199234
H    -2.762850  -3.137713  2.632349
H    -1.138721  -4.486785  1.281664
H    -2.068786  -4.108431  -0.208997
H    -3.773499  -5.605289  0.519475
H    -2.861876  -5.989373  1.936657
O    2.217270  0.706474  2.096927
H    1.094907  1.000476  0.565529
Hg    3.485585  0.285665  4.398499
