25
Energy: -566923.745754 eV PBE+vdW (tier 2 basis)
N    0.641030  -0.411590  -0.007290
C    0.047519  -0.194677  1.379808
C    1.265202  0.042988  2.331160
O    0.990950  0.080971  3.566724
H    0.071508  0.013160  -0.750650
H    0.756248  -1.411720  -0.220855
H    -0.474269  0.772842  1.338340
C    -0.930171  -1.292617  1.800927
C    -0.338841  -2.700047  1.975974
C    -1.268424  -3.708443  2.666276
C    -2.541641  -4.088948  1.815383
N    -3.350891  -5.065574  2.444194
H    -1.755753  -1.296258  1.069968
H    -1.365694  -0.950857  2.750965
H    0.559781  -2.639216  2.612281
H    -0.006901  -3.123266  1.011801
H    -1.600013  -3.319492  3.639575
H    -0.714520  -4.636697  2.856056
H    -2.217369  -4.468824  0.837409
H    -3.141655  -3.173419  1.672545
H    -3.970812  -4.827884  3.214373
H    -3.285084  -6.050597  2.202041
O    2.376236  0.224967  1.790120
H    1.593013  0.013087  0.006875
Hg    3.145893  0.684177  4.270356
