33
Energy: -38326.5776817 eV PBE+vdW (tier 2 basis)
C    0.148729  0.206401  0.604954
C    -0.685290  0.543628  1.800872
O    -0.575290  -0.128266  2.858489
H    -0.000325  -0.851668  0.352505
H    1.208555  0.321870  0.872081
H    -0.065978  0.821783  -0.274619
N    -1.540863  1.582356  1.683981
C    -2.462204  2.203376  2.663312
C    -1.720691  2.666906  3.931186
O    -1.344608  1.836261  4.807433
H    -1.535479  2.034950  0.774409
H    -2.808719  3.102091  2.141584
C    -3.771590  1.409701  2.964374
C    -3.699429  0.176734  3.837079
C    -3.924704  0.264745  5.226743
C    -3.411259  -1.089126  3.291151
C    -3.799807  -0.860951  6.053554
C    -3.280486  -2.218149  4.111939
C    -3.458087  -2.105557  5.499891
H    -4.202265  1.144348  1.988662
H    -4.466749  2.128628  3.421249
H    -4.191177  1.224501  5.670337
H    -3.279758  -1.196107  2.214467
H    -3.987814  -0.771256  7.123532
H    -3.059673  -3.188283  3.667144
H    -3.374513  -2.985739  6.137158
N    -1.499490  3.965133  4.106666
C    -1.832265  5.091482  3.225652
H    -1.018504  4.188936  4.978199
H    -2.917211  5.200912  3.105843
H    -1.348701  4.989209  2.246685
H    -1.452504  6.003909  3.693522
Ca    -1.231850  -0.352756  4.915968
