33
Energy: -38326.6777675 eV PBE+vdW (tier 2 basis)
C    -0.714383  1.095096  2.269159
C    -1.612947  -0.088467  2.444922
O    -1.727711  -0.633611  3.573392
H    0.293671  0.832258  2.616147
H    -1.071022  1.906937  2.918324
H    -0.658011  1.460960  1.238954
N    -2.276043  -0.528564  1.354680
C    -3.259089  -1.624714  1.186422
C    -4.471320  -1.465089  2.125471
O    -4.390975  -1.705746  3.362207
H    -2.095394  0.000376  0.506160
H    -3.623930  -1.476103  0.161902
C    -2.663701  -3.067444  1.175209
C    -2.233528  -3.688523  2.485492
C    -3.126468  -4.487457  3.229858
C    -0.935662  -3.493167  2.996319
C    -2.758647  -5.018077  4.474745
C    -0.562117  -4.016826  4.241976
C    -1.478201  -4.768440  4.994714
H    -1.812477  -3.047291  0.480464
H    -3.425678  -3.709432  0.710705
H    -4.123091  -4.691514  2.837342
H    -0.209065  -2.919883  2.420679
H    -3.461575  -5.641326  5.027648
H    0.448693  -3.855263  4.616063
H    -1.183277  -5.191611  5.954805
N    -5.617258  -1.086926  1.573223
C    -6.861541  -0.904383  2.326320
H    -5.637216  -0.893273  0.576360
H    -7.675471  -0.742225  1.615289
H    -6.782408  -0.035989  2.991950
H    -7.072975  -1.797247  2.925001
Ca    -2.729181  -2.175038  4.724097
