33
Energy: -38325.6828643 eV PBE+vdW (tier 2 basis)
C    -0.514076  -0.722459  0.122193
C    -0.764683  0.082484  1.351834
O    -0.288324  -0.300994  2.470595
H    -0.836255  -0.223867  -0.797570
H    -1.068235  -1.668425  0.220190
H    0.550514  -0.976680  0.051865
N    -1.496957  1.195356  1.247001
C    -2.116504  2.012212  2.312804
C    -1.099528  2.826250  3.121926
O    -0.276182  2.254326  3.910338
H    -1.856399  1.383095  0.314723
H    -2.748475  2.721150  1.762451
C    -3.067277  1.200516  3.238999
C    -4.076752  0.407518  2.446131
C    -5.187014  1.045156  1.874913
C    -3.899795  -0.967337  2.243041
C    -6.098607  0.319687  1.108228
C    -4.814163  -1.694569  1.479346
C    -5.911252  -1.049688  0.906331
H    -3.560332  1.924824  3.904563
H    -2.491875  0.521387  3.886736
H    -5.361466  2.109266  2.049326
H    -3.059240  -1.485227  2.711161
H    -6.966293  0.820762  0.681199
H    -4.680059  -2.767307  1.344898
H    -6.630197  -1.616799  0.316771
N    -1.158007  4.142798  3.026190
C    -0.337993  5.094929  3.777409
H    -1.828691  4.535740  2.369392
H    0.400319  5.557802  3.110434
H    0.173916  4.572946  4.588445
H    -0.986338  5.875805  4.190173
Ca    0.455280  0.308050  4.334014
