33
Energy: -38326.5531791 eV PBE+vdW (tier 2 basis)
C    0.308558  0.385603  0.783212
C    -0.598886  0.665294  1.944700
O    -0.482777  0.028917  3.021961
H    0.844126  1.293298  0.472236
H    -0.266323  0.028196  -0.083217
H    1.036293  -0.379093  1.065230
N    -1.538800  1.620285  1.762411
C    -2.562596  2.172528  2.677973
C    -1.932321  2.738525  3.964151
O    -1.508977  1.970235  4.875387
H    -1.528465  2.055084  0.843548
H    -2.968747  3.019198  2.113966
C    -3.803026  1.263303  2.943628
C    -3.657005  0.069889  3.860900
C    -3.952504  0.178735  5.235897
C    -3.228266  -1.179470  3.372121
C    -3.761717  -0.904417  6.105912
C    -3.031142  -2.265595  4.236420
C    -3.281546  -2.127823  5.610844
H    -4.156053  0.928379  1.958219
H    -4.586595  1.923703  3.342187
H    -4.326855  1.122188  5.634268
H    -3.037832  -1.306554  2.306501
H    -4.005801  -0.800053  7.163167
H    -2.701225  -3.223718  3.835229
H    -3.146071  -2.976340  6.281288
N    -1.858116  4.056060  4.117696
C    -2.269251  5.123064  3.196834
H    -1.441886  4.346989  5.002639
H    -3.352744  5.110710  3.025673
H    -1.731767  5.056778  2.243159
H    -2.013505  6.079943  3.660147
Ca    -1.203393  -0.193701  5.062008
