33
Energy: -38325.8280758 eV PBE+vdW (tier 2 basis)
C    -0.601855  -0.132977  4.638730
C    -0.669046  0.217846  3.191413
O    0.270308  -0.133057  2.398184
H    -1.439223  0.269629  5.217456
H    0.344030  0.227122  5.063907
H    -0.595989  -1.228801  4.732295
N    -1.726687  0.888857  2.734999
C    -2.012830  1.193097  1.325671
C    -1.109600  2.355430  0.862076
O    0.058589  2.067775  0.419510
H    -2.438074  1.199554  3.403605
H    -1.681484  0.327758  0.732294
C    -3.543257  1.336061  1.102471
C    -4.260327  2.329959  1.989038
C    -4.613824  3.602854  1.507183
C    -4.606075  1.997319  3.311011
C    -5.246402  4.532083  2.337842
C    -5.232249  2.928318  4.142338
C    -5.539144  4.202538  3.661851
H    -3.965804  0.331354  1.248090
H    -3.696675  1.581608  0.042663
H    -4.457183  3.847946  0.453234
H    -4.465176  0.975365  3.675747
H    -5.534564  5.504652  1.940483
H    -5.509212  2.647404  5.157769
H    -6.039749  4.923307  4.306585
N    -1.536621  3.593435  0.954722
C    -0.787148  4.786247  0.562438
H    -2.486535  3.729357  1.329667
H    0.008793  4.512479  -0.134207
H    -0.354400  5.268471  1.448725
H    -1.474408  5.488305  0.078893
Ca    1.447819  0.497706  0.764319
