33
Energy: -38325.6608681 eV PBE+vdW (tier 2 basis)
C    -1.624493  -0.984549  -0.142474
C    -1.134107  -0.684749  1.233702
O    0.106961  -0.447106  1.436326
H    -1.434725  -0.105723  -0.776211
H    -2.692348  -1.222724  -0.174655
H    -1.049126  -1.815115  -0.571264
N    -2.011553  -0.659053  2.233698
C    -1.803168  -0.189325  3.609747
C    -1.070796  -1.248163  4.465190
O    0.151297  -1.506278  4.192127
H    -2.995414  -0.866169  2.025052
H    -1.084882  0.645565  3.566955
C    -3.153663  0.365209  4.147630
C    -4.413360  -0.285411  3.603567
C    -4.677578  -1.664016  3.705019
C    -5.367744  0.530990  2.977241
C    -5.865586  -2.202357  3.207257
C    -6.557898  -0.005832  2.484956
C    -6.809731  -1.373268  2.599601
H    -3.181968  1.429275  3.880997
H    -3.132729  0.361653  5.248824
H    -3.965535  -2.347590  4.172687
H    -5.185852  1.603208  2.890100
H    -6.057295  -3.270264  3.303552
H    -7.290735  0.648615  2.014887
H    -7.740166  -1.792757  2.219709
N    -1.685465  -1.822162  5.477462
C    -1.104524  -2.800113  6.397980
H    -2.654987  -1.556560  5.640419
H    -0.043253  -2.924857  6.175223
H    -1.621602  -3.761290  6.286630
H    -1.229951  -2.444706  7.427390
Ca    1.639978  -1.002378  2.756675
