33
Energy: -38325.7390956 eV PBE+vdW (tier 2 basis)
C    -2.158029  -2.930721  0.738825
C    -1.544399  -2.021443  1.748366
O    -0.419020  -1.464924  1.510603
H    -3.115330  -3.349592  1.064357
H    -1.462536  -3.748001  0.505849
H    -2.309833  -2.365467  -0.191900
N    -2.194883  -1.799119  2.890326
C    -1.901659  -0.759116  3.893494
C    -0.661837  -1.115796  4.740596
O    0.502691  -0.951573  4.240273
H    -3.153583  -2.159687  2.940682
H    -1.622438  0.158774  3.350048
C    -3.197162  -0.474830  4.694305
C    -4.382845  -0.272541  3.778725
C    -5.304114  -1.314481  3.588511
C    -4.550329  0.926568  3.072871
C    -6.371494  -1.162913  2.698985
C    -5.618056  1.077395  2.188883
C    -6.525447  0.031704  1.995925
H    -3.021119  0.408357  5.323906
H    -3.425991  -1.320578  5.363829
H    -5.223042  -2.232428  4.177559
H    -3.863179  1.759871  3.233666
H    -7.093113  -1.969375  2.574860
H    -5.753378  2.019846  1.659652
H    -7.363920  0.157843  1.312426
N    -0.823726  -1.549397  5.973319
C    0.245765  -1.898343  6.909869
H    -1.780493  -1.640269  6.309182
H    0.311551  -2.989120  7.012039
H    0.016583  -1.461647  7.887891
H    1.195488  -1.503490  6.543026
Ca    1.394874  -0.795505  2.319051
