20
Energy: -33559.3225454 eV PBE+vdW (tier 2 basis)
N    0.051034  -0.489349  -0.780385
C    -0.030766  -0.237368  0.712242
C    0.878993  1.011959  0.886926
O    1.755555  1.201908  0.071486
H    -0.698285  -0.016963  -1.303961
H    0.041480  -1.486087  -1.029583
H    -1.079807  -0.041196  0.971995
C    0.524395  -1.467798  1.463062
C    0.534717  -1.312972  2.988458
C    1.050725  -2.523272  3.738307
O    1.070680  -2.485557  5.021830
O    1.476493  -3.568009  3.125775
H    1.545666  -1.666881  1.104479
H    -0.090670  -2.339163  1.192171
H    -0.469787  -1.105151  3.391198
H    1.168243  -0.473954  3.317433
O    0.710190  1.795419  1.946693
H    -0.107303  1.608671  2.445197
H    0.969022  -0.041545  -1.050273
Ca    1.951426  -4.456692  5.078949
