20
Energy: -33558.3892767 eV PBE+vdW (tier 2 basis)
N    0.369348  -1.096361  -0.271813
C    0.133334  -0.289425  0.980649
C    1.533945  -0.140444  1.597196
O    2.455244  -0.832244  1.206916
H    1.308674  -1.545202  -0.128012
H    0.422272  -0.514972  -1.117116
H    -0.281571  0.686053  0.699053
C    -0.838442  -1.033486  1.930747
C    -2.095623  -1.454744  1.224571
C    -2.823649  -2.573451  1.430884
O    -3.944076  -2.936005  0.868217
O    -2.484088  -3.603376  2.379866
H    -1.039795  -0.333604  2.757276
H    -0.299919  -1.889768  2.371722
H    -0.388535  -1.789874  -0.391485
H    -2.580894  -0.737004  0.559902
O    1.554874  0.760683  2.567650
H    2.457457  0.819184  2.948637
H    -1.782555  -3.356208  3.006852
Ca    -4.551809  -4.597592  1.910040
