20
Energy: -33559.1463639 eV PBE+vdW (tier 2 basis)
N    -0.186189  0.063257  -0.105407
C    -0.072178  -0.011502  1.405225
C    1.445847  0.170600  1.669200
O    1.768914  0.338430  2.925003
H    -0.716614  -0.715224  -0.516770
H    -0.602094  0.943315  -0.434769
H    -0.616899  0.840383  1.832275
C    -0.667373  -1.341484  1.914420
C    -0.421236  -1.632590  3.407874
C    0.847269  -2.406928  3.648341
O    1.282920  -3.323602  3.032966
O    1.573736  -1.959306  4.851622
H    -0.266145  -2.180797  1.325219
H    -1.751927  -1.312953  1.743697
H    -1.218286  -2.306627  3.765809
H    -0.482527  -0.735958  4.033796
O    2.218263  0.138088  0.724246
H    0.824374  0.024637  -0.420938
H    2.046938  -2.764498  5.155846
Ca    2.739082  0.056754  4.686640
