20
Energy: -33558.3316247 eV PBE+vdW (tier 2 basis)
N    -0.085077  -0.301976  -0.004153
C    -0.317098  -0.003938  1.469109
C    0.950048  0.544884  2.135336
O    0.945832  0.960727  3.259518
H    -0.106707  0.547405  -0.583703
H    0.843064  -0.732046  -0.134902
H    -1.085603  0.779798  1.511706
C    -0.814198  -1.276911  2.181641
C    -2.097268  -1.815998  1.612289
C    -2.291127  -3.133608  1.391569
O    -1.474311  -4.150868  1.473303
O    -3.585016  -3.663176  1.042147
H    -0.942833  -0.986640  3.236206
H    -0.028899  -2.047473  2.166393
H    -0.822924  -0.953088  -0.325928
H    -2.959270  -1.148469  1.551846
O    2.019052  0.452554  1.304057
H    2.812565  0.796160  1.766231
H    -4.302437  -3.005676  1.076571
Ca    -2.741101  -5.781667  1.315744
