20
Energy: -33558.6836569 eV PBE+vdW (tier 2 basis)
N    -0.018689  0.961993  0.976471
C    0.119748  0.031449  2.065389
C    1.574814  -0.180256  2.403559
O    1.971044  -1.026654  3.281144
H    -0.989972  1.058875  0.685360
H    0.346581  1.892616  1.177981
H    -0.305383  0.375524  3.042273
C    -0.556630  -1.336171  1.705467
C    -1.582024  -1.879834  2.703810
C    -1.100262  -2.520566  3.970526
O    -1.911810  -3.194058  4.687523
O    0.135089  -2.433664  4.395977
H    0.195578  -2.100848  1.466918
H    -1.079353  -1.161389  0.757007
H    -2.213031  -2.639214  2.214985
H    -2.302984  -1.101482  3.012631
O    2.449829  0.548565  1.804725
H    3.369739  0.356386  2.098236
H    1.200317  -1.581647  3.693926
Ca    -0.445835  -3.772789  6.135478
