20
Energy: -33558.8602443 eV PBE+vdW (tier 2 basis)
N    -0.124401  -0.128169  -0.119746
C    -0.056212  0.121311  1.383454
C    1.399677  0.404588  1.747842
O    1.710167  0.578409  2.969355
H    0.675685  0.332424  -0.587005
H    -1.003904  0.219096  -0.525760
H    -0.618249  1.050649  1.570388
C    -0.676260  -1.038673  2.174076
C    -2.178838  -1.217569  1.915034
C    -2.792220  -2.343390  2.752682
O    -3.803893  -2.229758  3.391503
O    -2.045967  -3.473788  2.651795
H    -0.505386  -0.815247  3.236415
H    -0.128136  -1.970069  1.959442
H    -2.387423  -1.474328  0.862149
H    -2.738414  -0.304826  2.156061
O    2.289236  0.487107  0.824376
H    -0.064342  -1.136306  -0.328028
H    -2.494594  -4.171310  3.172693
Ca    3.794426  0.955828  2.420407
