20
Energy: -33560.1906114 eV PBE+vdW (tier 2 basis)
N    -0.358366  0.934259  0.633171
C    0.011759  -0.120930  1.662092
C    1.524963  -0.318819  1.556345
O    2.034607  -0.222057  0.387758
H    -0.199479  1.888533  0.987986
H    -1.340771  0.872287  0.329765
H    -0.273862  0.249653  2.653607
C    -0.719882  -1.438940  1.305738
C    -0.461506  -2.644134  2.233162
C    0.713538  -3.544288  1.898673
O    1.689180  -3.192194  1.216225
O    0.730679  -4.765844  2.384617
H    -0.482462  -1.711871  0.266487
H    -1.799776  -1.234143  1.346856
H    -1.370663  -3.262755  2.249622
H    -0.309803  -2.322076  3.278428
O    2.162277  -0.733660  2.561532
H    0.268490  0.794471  -0.184393
H    -0.073138  -5.001635  2.889520
Ca    3.455217  -1.863856  1.085808
