20
Energy: -33558.3964409 eV PBE+vdW (tier 2 basis)
N    -0.107680  -0.605180  -0.012257
C    0.003842  -0.130597  1.416264
C    1.519358  -0.209396  1.700775
O    2.295178  -0.552399  0.828519
H    -0.622669  0.033926  -0.626932
H    0.895698  -0.701287  -0.328269
H    -0.293392  0.925487  1.458487
C    -0.875932  -0.972785  2.365608
C    -0.682679  -2.449851  2.159205
C    -1.604956  -3.427011  2.290350
O    -1.455777  -4.717861  2.167969
O    -2.986643  -3.199874  2.632816
H    -1.922243  -0.662512  2.211741
H    -0.607976  -0.654175  3.385805
H    0.331172  -2.831833  2.019119
H    -0.544754  -1.543351  -0.027140
O    1.812968  0.147186  2.941382
H    2.785370  0.127898  3.070901
H    -3.178466  -2.300384  2.949803
Ca    -3.243566  -5.521513  2.777873
