20
Energy: -33559.0071762 eV PBE+vdW (tier 2 basis)
N    0.134035  0.436948  0.237894
C    0.383048  0.028713  1.685046
C    1.879979  -0.192879  1.874807
O    2.343770  -0.273868  3.057449
H    0.714017  -0.138302  -0.394576
H    0.368286  1.423152  0.056075
H    0.057777  0.865788  2.318701
C    -0.393818  -1.248688  2.032842
C    -1.915839  -1.098639  1.986793
C    -2.563242  -2.304091  2.682330
O    -1.942583  -3.092493  3.357827
O    -3.881272  -2.329674  2.442485
H    -0.107063  -1.538775  3.053646
H    -0.064053  -2.073983  1.381603
H    -2.329124  -1.038475  0.967256
H    -2.251399  -0.196427  2.523336
O    2.641726  -0.349979  0.853934
H    -0.859754  0.298802  -0.001752
H    -4.271365  -3.087960  2.924813
Ca    4.331295  -0.737221  2.276858
