20
Energy: -33558.1433375 eV PBE+vdW (tier 2 basis)
N    -0.143476  -0.387414  0.174037
C    0.310838  -0.410770  1.612633
C    1.524907  -1.351077  1.599820
O    1.727012  -2.089683  0.655902
H    0.213750  -1.283203  -0.239045
H    0.275715  0.383529  -0.360109
H    0.593128  0.607408  1.904226
C    -0.822707  -0.962987  2.524460
C    -2.145857  -0.265736  2.389116
C    -2.593669  0.732169  3.194373
O    -3.814325  1.253450  3.116289
O    -1.905987  1.332322  4.206387
H    -0.424479  -0.937324  3.550911
H    -0.951399  -2.033325  2.300159
H    -2.884354  -0.677365  1.701759
H    -1.169421  -0.307295  0.116183
O    2.227610  -1.267378  2.723046
H    2.969860  -1.908586  2.694752
H    -1.043102  0.908284  4.355376
Ca    -5.261901  2.307704  3.916100
