20
Energy: -33558.5073748 eV PBE+vdW (tier 2 basis)
N    -0.181990  -0.833456  0.071781
C    -0.030251  0.071048  1.282307
C    1.502391  0.196432  1.417530
O    2.240727  -0.400376  0.654791
H    -0.678984  -0.392748  -0.709626
H    0.826442  -1.024237  -0.204775
H    -0.447204  1.052952  1.023714
C    -0.717224  -0.489080  2.543106
C    -2.219444  -0.503291  2.505457
C    -2.948336  0.236380  3.362274
O    -2.584127  1.093241  4.281720
O    -4.387433  0.159604  3.411360
H    -0.379818  0.134650  3.381084
H    -0.319701  -1.500627  2.738204
H    -2.743149  -1.194614  1.843850
H    -0.642296  -1.723838  0.293325
O    1.859662  0.994583  2.410856
H    2.838488  1.052264  2.448868
H    -4.769822  -0.511588  2.819967
Ca    -4.363732  1.585495  5.203776
