20
Energy: -33559.6794463 eV PBE+vdW (tier 2 basis)
N    2.031133  1.239585  0.884212
C    0.779733  0.389586  1.024484
C    -0.314004  1.448787  1.301793
O    -0.020789  2.628219  1.369207
H    2.735259  1.047819  1.606026
H    1.653874  2.225955  1.021824
H    0.574661  -0.062385  0.043506
C    0.877995  -0.687783  2.110602
C    1.817192  -1.848495  1.760240
C    1.759104  -3.017368  2.722112
O    2.630831  -3.954810  2.612622
O    0.845691  -3.101894  3.620450
H    -0.139232  -1.072760  2.259812
H    1.162346  -0.223209  3.067971
H    2.876237  -1.554835  1.693038
H    1.572116  -2.270056  0.770211
O    -1.515155  0.912269  1.427446
H    -2.181269  1.618215  1.574060
H    2.477736  1.165976  -0.036931
Ca    1.669540  -5.042816  4.215315
