20
Energy: -33559.7169972 eV PBE+vdW (tier 2 basis)
N    0.529435  -1.550166  0.152285
C    0.248286  -0.388140  1.076848
C    1.556004  0.072739  1.750358
O    2.510147  -0.681880  1.954444
H    1.235440  -1.323684  -0.561049
H    -0.328784  -1.825998  -0.345185
H    -0.132925  0.433841  0.454379
C    -0.833976  -0.765575  2.138229
C    -0.811017  -2.215420  2.700782
C    0.588343  -2.672564  3.032243
O    1.132202  -2.403764  4.142110
O    1.295299  -3.220662  2.084703
H    -1.820870  -0.592068  1.689327
H    -0.747253  -0.048749  2.966375
H    -1.255370  -2.920351  1.985683
H    -1.428797  -2.229416  3.606795
O    1.625842  1.312611  2.174007
H    0.862603  1.879108  1.939865
H    0.867820  -2.387489  0.748270
Ca    3.131573  -2.521376  3.218530
