20
Energy: -33558.6021397 eV PBE+vdW (tier 2 basis)
N    1.038210  -1.773897  0.118038
C    0.389919  -0.709527  0.848144
C    1.265577  -0.287533  2.009057
O    2.496046  -0.593461  2.069469
H    0.549543  -1.987845  -0.750742
H    2.009501  -1.564812  -0.110771
H    0.271085  0.247952  0.277878
C    -1.027832  -1.171002  1.314992
C    -2.209252  -0.236432  1.021451
C    -2.397772  0.978405  1.877400
O    -1.563045  1.417599  2.731358
O    -3.473164  1.699005  1.802238
H    -1.023424  -1.461254  2.374752
H    -1.223708  -2.104842  0.773743
H    -3.146664  -0.813586  1.099820
H    -2.186113  0.121878  -0.024244
O    0.774611  0.444191  2.979031
H    -0.657161  0.919640  2.800081
H    -4.130458  1.358281  1.161561
Ca    2.802371  0.417208  3.952908
