25
Energy: -37166.5071585 eV PBE+vdW (tier 2 basis)
C    0.472512  0.357403  0.751798
C    -0.183762  0.743524  2.033072
O    0.302558  1.670672  2.766445
H    -0.185233  0.574692  -0.101229
H    1.398826  0.925056  0.635925
H    0.660221  -0.723203  0.741493
N    -1.308931  0.137163  2.465582
C    -2.473977  -0.303132  1.681719
C    -2.181101  -1.594844  0.869485
O    -1.130594  -2.205503  1.018870
H    -1.570692  0.454670  3.396743
H    -3.207061  -0.590747  2.447359
C    -3.090788  0.882552  0.847474
C    -2.604672  2.209086  1.404730
O    -2.878459  2.544195  2.609950
O    -1.763632  2.890862  0.719264
H    -4.186074  0.841143  0.912481
H    -2.796665  0.822300  -0.205825
N    -3.186138  -1.980767  0.044245
C    -3.134455  -3.214630  -0.731109
H    -4.045476  -1.443811  0.020313
H    -3.852350  -3.950838  -0.346388
H    -3.356148  -3.012046  -1.785803
H    -2.124720  -3.625804  -0.644488
Ca    -0.865188  3.538008  2.640895
