25
Energy: -37167.2722097 eV PBE+vdW (tier 2 basis)
C    -0.190694  0.079691  -0.027369
C    0.041118  -0.418971  1.374530
O    1.141884  -0.924642  1.668274
H    -0.192956  -0.787422  -0.701723
H    0.651425  0.717901  -0.319194
H    -1.126930  0.632702  -0.159171
N    -1.011346  -0.266298  2.223769
C    -1.278860  -0.638872  3.631391
C    -0.169635  -0.173955  4.596070
O    1.041032  -0.422293  4.395461
H    -1.818376  0.156701  1.779419
H    -2.182435  -0.066005  3.869041
C    -1.662499  -2.139018  3.864389
C    -0.417580  -3.004488  3.746734
O    -0.018104  -3.322869  2.580358
O    0.328647  -3.131932  4.771393
H    -2.414536  -2.417851  3.116625
H    -2.094525  -2.228351  4.869080
N    -0.546814  0.493661  5.693872
C    -1.890348  0.880937  6.118719
H    0.225651  0.717877  6.317396
H    -2.535516  0.007057  6.276469
H    -2.360310  1.566171  5.401230
H    -1.802692  1.408130  7.072875
Ca    1.870398  -2.269859  3.306359
