25
Energy: -37166.7508288 eV PBE+vdW (tier 2 basis)
C    0.327512  -0.590330  0.525910
C    -0.283632  0.004046  1.755835
O    0.443928  0.311297  2.759117
H    0.419891  -1.677819  0.658725
H    1.335487  -0.180171  0.403279
H    -0.262919  -0.394873  -0.375274
N    -1.604778  0.203546  1.829163
C    -2.669262  -0.606439  1.251976
C    -3.959191  0.192852  1.577708
O    -3.943127  1.006807  2.499757
H    -1.981712  0.743330  2.624505
H    -2.536084  -0.709441  0.167666
C    -2.729975  -2.052508  1.907847
C    -1.785232  -2.112588  3.093754
O    -0.619330  -2.623719  2.934113
O    -2.076710  -1.494319  4.173485
H    -2.433572  -2.809563  1.175153
H    -3.753603  -2.257234  2.243346
N    -5.036756  -0.110771  0.826449
C    -6.349508  0.488540  1.037465
H    -4.926668  -0.766777  0.060820
H    -6.287453  1.140417  1.913299
H    -7.102230  -0.289142  1.216280
H    -6.646965  1.085445  0.166143
Ca    0.108888  -1.120584  4.411477
