25
Energy: -37166.4724016 eV PBE+vdW (tier 2 basis)
C    0.320510  -0.175003  0.860212
C    -0.290617  0.585910  1.989460
O    0.096592  1.781971  2.220650
H    0.124105  -1.249067  0.901058
H    -0.029686  0.227815  -0.099897
H    1.402426  0.007106  0.906311
N    -1.202526  0.042551  2.822418
C    -2.424338  -0.739085  2.493860
C    -2.298175  -1.538028  1.173184
O    -1.833705  -2.672199  1.213593
H    -1.349675  0.631453  3.645393
H    -2.536361  -1.511891  3.263083
C    -3.656265  0.238064  2.594193
C    -3.216379  1.642624  2.247476
O    -2.975512  2.468986  3.195085
O    -2.888768  1.938709  1.039135
H    -4.041804  0.238272  3.619301
H    -4.449493  -0.111862  1.922410
N    -2.730843  -0.922432  0.046907
C    -2.655365  -1.577538  -1.251100
H    -2.984539  0.063649  0.090323
H    -2.860421  -2.645768  -1.127269
H    -3.400103  -1.137351  -1.921742
H    -1.657251  -1.474264  -1.703240
Ca    -1.393809  3.373377  1.941198
