25
Energy: -37166.8964211 eV PBE+vdW (tier 2 basis)
C    0.106301  0.549791  0.058597
C    -0.538106  0.561363  1.418725
O    -0.626855  1.590209  2.103100
H    -0.529012  1.126155  -0.627678
H    1.072514  1.063636  0.114468
H    0.247176  -0.455112  -0.355207
N    -1.026195  -0.632777  1.875004
C    -1.916075  -0.772638  3.028237
C    -1.168722  -0.676734  4.396484
O    -1.373661  -1.463959  5.374482
H    -0.883349  -1.458569  1.303784
H    -2.589036  0.101375  3.033299
C    -2.760048  -2.045927  2.802598
C    -3.518456  -2.450156  4.045480
O    -3.319041  -3.611035  4.544278
O    -4.169583  -1.563589  4.699752
H    -2.124965  -2.891105  2.508362
H    -3.464112  -1.840122  1.984470
N    -0.338909  0.345446  4.497424
C    0.422737  0.652917  5.699364
H    -0.331712  1.002718  3.685426
H    0.914078  -0.248677  6.082220
H    1.181800  1.398222  5.446537
H    -0.226478  1.063294  6.485611
Ca    -3.047291  -2.454726  6.390183
