25
Energy: -37166.9303804 eV PBE+vdW (tier 2 basis)
C    0.556602  0.611827  0.839248
C    -0.097925  0.948134  2.156002
O    0.150222  1.947613  2.813619
H    0.053007  1.178298  0.043001
H    0.507910  -0.454509  0.586927
H    1.601082  0.938397  0.864220
N    -1.036485  0.022880  2.620673
C    -1.923435  0.410250  3.703035
C    -1.277002  0.224141  5.091090
O    -1.800054  0.732891  6.129736
H    -1.350064  -0.706675  1.988081
H    -2.099364  1.495698  3.636378
C    -3.290813  -0.315430  3.571621
C    -4.163562  0.122234  4.728677
O    -4.350413  -0.668812  5.713707
O    -4.489096  1.359114  4.812766
H    -3.171075  -1.405629  3.588521
H    -3.743391  -0.004008  2.621289
N    -0.152108  -0.465769  5.152160
C    0.619471  -0.674809  6.370324
H    0.214760  -0.781159  4.256186
H    1.451559  -1.347151  6.146022
H    -0.008153  -1.127631  7.146570
H    1.016344  0.278317  6.742768
Ca    -3.820019  1.133791  6.895381
