25
Energy: -37166.2776442 eV PBE+vdW (tier 2 basis)
C    0.433358  -0.073475  0.810486
C    -0.056956  -0.266161  2.231602
O    0.672807  -0.131919  3.199799
H    0.853573  -1.020371  0.441248
H    -0.328767  0.263519  0.098011
H    1.247518  0.656650  0.837464
N    -1.375546  -0.666005  2.431591
C    -2.437752  -0.852634  1.463953
C    -2.048487  -1.861686  0.353242
O    -2.306619  -1.682926  -0.875687
H    -1.615196  -0.736482  3.417009
H    -3.251204  -1.377837  1.992846
C    -3.020676  0.519810  1.002784
C    -3.903382  0.397631  -0.210002
O    -3.572809  1.008446  -1.286680
O    -4.833812  -0.485119  -0.228079
H    -2.214042  1.225813  0.785162
H    -3.594281  0.916132  1.851297
N    -1.453823  -3.003197  0.709346
C    -1.137039  -3.544330  2.032570
H    -1.230509  -3.597035  -0.086217
H    -0.209912  -3.120548  2.435589
H    -1.952607  -3.361718  2.739624
H    -1.017213  -4.626761  1.923501
Ca    -3.933335  -0.941846  -2.191099
