25
Energy: -37166.6126895 eV PBE+vdW (tier 2 basis)
C    0.113349  -2.711732  0.671672
C    -0.121808  -1.769613  1.799364
O    -0.216594  -2.150196  2.993507
H    1.187118  -2.960765  0.687981
H    -0.100323  -2.263454  -0.302835
H    -0.457950  -3.632318  0.811338
N    -0.073835  -0.398416  1.586503
C    -0.991581  0.492431  0.845127
C    -1.545775  1.437278  1.957389
O    -1.604401  1.029275  3.147475
H    0.122130  0.031543  2.492493
H    -0.434020  1.076031  0.097161
C    -2.201897  -0.198074  0.133684
C    -3.012237  -0.914210  1.209898
O    -2.670731  -2.110496  1.511201
O    -3.755688  -0.230916  1.976068
H    -1.845979  -0.892302  -0.634468
H    -2.799259  0.584983  -0.347959
N    -1.941638  2.649441  1.592331
C    -2.600033  3.589250  2.497268
H    -1.840258  2.913115  0.617297
H    -2.536304  4.593306  2.069020
H    -2.097300  3.575811  3.469365
H    -3.654375  3.315490  2.633736
Ca    -2.302613  -1.201461  3.559384
