25
Energy: -37166.48422 eV PBE+vdW (tier 2 basis)
C    -0.217786  -0.008275  -0.102202
C    -0.064103  -0.009018  1.381525
O    1.085350  -0.122741  1.919008
H    -0.455764  1.006599  -0.454323
H    0.722137  -0.332933  -0.555818
H    -1.037635  -0.660330  -0.424585
N    -1.135468  0.108844  2.200526
C    -2.310705  0.993955  2.016870
C    -3.089810  0.704196  0.700204
O    -3.084722  1.502793  -0.228811
H    -0.860998  0.049485  3.181583
H    -2.968406  0.744483  2.858252
C    -1.920914  2.509025  2.105900
C    -0.468174  2.658004  2.493900
O    0.400325  2.918292  1.587241
O    -0.080352  2.352672  3.680561
H    -2.554209  2.998491  2.854927
H    -2.090007  2.964149  1.123602
N    -3.751442  -0.481502  0.648771
C    -3.966213  -1.448852  1.719631
H    -4.286116  -0.600065  -0.207703
H    -4.455707  -2.328771  1.291404
H    -4.618304  -1.054797  2.513333
H    -3.017676  -1.780282  2.159418
Ca    1.866686  1.770974  2.771760
