25
Energy: -37167.0228081 eV PBE+vdW (tier 2 basis)
C    -1.260930  -0.391838  -0.551786
C    -0.785986  -0.306230  0.874449
O    0.412616  -0.273421  1.179319
H    -2.346984  -0.504529  -0.646028
H    -0.954805  0.524113  -1.074182
H    -0.758630  -1.229989  -1.048805
N    -1.757254  -0.247053  1.840689
C    -1.390540  -0.047673  3.237157
C    -0.970551  -1.416976  3.839008
O    -1.748370  -2.185620  4.488895
H    -2.738799  -0.393084  1.622290
H    -0.482654  0.571894  3.222701
C    -2.469527  0.731177  4.016148
C    -3.634229  -0.162523  4.370574
O    -4.173756  -0.877429  3.447037
O    -3.910879  -0.383790  5.597104
H    -2.798413  1.567948  3.384406
H    -2.047584  1.145577  4.937827
N    0.277456  -1.761202  3.560099
C    0.874478  -3.040371  3.918052
H    0.743638  -1.159053  2.861860
H    0.556058  -3.833880  3.227312
H    1.962688  -2.943145  3.868379
H    0.581836  -3.316830  4.936020
Ca    -3.867876  -2.482074  4.958475
