25
Energy: -37166.5729056 eV PBE+vdW (tier 2 basis)
C    0.439522  -0.574869  0.859997
C    -0.302493  0.476739  1.657721
O    0.190422  1.557967  1.921473
H    0.054203  -1.596070  0.956416
H    0.417977  -0.291812  -0.201376
H    1.488948  -0.551579  1.173330
N    -1.584367  0.183657  2.156077
C    -2.519168  -0.861161  1.769497
C    -2.219174  -2.212499  2.470470
O    -2.874628  -3.269686  2.227164
H    -1.993933  1.008118  2.590594
H    -3.490130  -0.575788  2.206450
C    -2.770123  -0.938100  0.231279
C    -3.773611  -2.024251  -0.066887
O    -3.396445  -3.074405  -0.692802
O    -4.919155  -1.988814  0.509856
H    -1.851413  -1.136300  -0.326298
H    -3.166913  0.039837  -0.070137
N    -1.291031  -2.190708  3.415203
C    -0.938402  -3.335332  4.245659
H    -0.852085  -1.285027  3.575826
H    -1.759488  -3.589935  4.928452
H    -0.717521  -4.206049  3.617737
H    -0.051636  -3.080553  4.831850
Ca    -4.460861  -4.099191  0.929207
