25
Energy: -37166.8825086 eV PBE+vdW (tier 2 basis)
C    0.016888  0.449330  -0.007867
C    -0.032869  -0.018379  1.424434
O    0.981904  -0.253047  2.093671
H    -0.497110  -0.261668  -0.669833
H    -0.471033  1.426583  -0.122068
H    1.061765  0.529710  -0.317111
N    -1.282739  -0.194659  1.956710
C    -1.553043  -0.382247  3.381989
C    -1.266354  -1.837852  3.871763
O    -2.048103  -2.505582  4.620424
H    -2.085896  -0.039489  1.356369
H    -0.826247  0.231705  3.940046
C    -2.972894  0.162314  3.653505
C    -3.487928  -0.244696  5.014264
O    -4.568617  -0.925086  5.090445
O    -2.736948  -0.098954  6.040169
H    -3.683833  -0.206400  2.903379
H    -2.930014  1.257835  3.581446
N    -0.093648  -2.318600  3.500628
C    0.395279  -3.636486  3.880221
H    0.524232  -1.654537  2.984555
H    0.632823  -3.677469  4.952344
H    -0.355173  -4.403439  3.656134
H    1.304743  -3.844551  3.310231
Ca    -3.333314  -2.207015  6.373388
