25
Energy: -37167.2068238 eV PBE+vdW (tier 2 basis)
C    1.124769  -2.122049  1.761767
C    -0.054178  -1.221310  1.968204
O    -0.763156  -1.327701  2.998572
H    1.834275  -1.750873  1.014348
H    0.733463  -3.091926  1.419483
H    1.638708  -2.280792  2.715415
N    -0.304245  -0.314964  0.998356
C    -1.520532  0.494195  0.775093
C    -1.896025  1.360161  1.998341
O    -2.553834  0.942698  2.981627
H    0.301018  -0.385087  0.186316
H    -1.217604  1.204921  -0.005641
C    -2.713485  -0.316080  0.190339
C    -2.870015  -1.718770  0.812876
O    -2.245252  -2.656035  0.334544
O    -3.633368  -1.771012  1.882563
H    -2.521324  -0.452813  -0.880382
H    -3.630834  0.275432  0.308257
N    -1.509695  2.637372  1.937626
C    -1.795161  3.607898  2.990706
H    -0.988882  2.948915  1.125706
H    -1.257036  3.350658  3.911774
H    -2.870175  3.628384  3.204277
H    -1.474832  4.596093  2.650483
Ca    -2.852600  -1.161315  3.691351
