25
Energy: -37166.4226445 eV PBE+vdW (tier 2 basis)
C    0.349444  0.727400  2.389635
C    0.066734  -0.702327  1.981192
O    0.656586  -1.664694  2.444796
H    0.612835  1.352567  1.524841
H    -0.516578  1.188650  2.887111
H    1.188130  0.718178  3.089966
N    -0.922007  -0.906304  1.022393
C    -1.849091  0.063862  0.505450
C    -3.006990  0.479335  1.447616
O    -3.526313  1.632886  1.289250
H    -1.041997  -1.884429  0.773123
H    -1.318783  1.012315  0.334749
C    -2.391225  -0.386964  -0.885902
C    -3.301334  0.710572  -1.390484
O    -4.567223  0.590725  -1.257958
O    -2.782374  1.843118  -1.693952
H    -1.524221  -0.509711  -1.546112
H    -2.941932  -1.332600  -0.812362
N    -3.465120  -0.297820  2.423751
C    -3.150293  -1.686896  2.780915
H    -4.195028  0.150521  2.974581
H    -3.196321  -2.340249  1.903973
H    -2.167290  -1.775274  3.255977
H    -3.915219  -2.019116  3.488955
Ca    -4.410845  2.654073  -0.461276
