25
Energy: -37166.5197654 eV PBE+vdW (tier 2 basis)
C    -0.443236  -0.143351  -0.104222
C    -0.211711  -0.088886  1.392602
O    0.898981  -0.132802  1.897486
H    0.505646  -0.392323  -0.585947
H    -0.775508  0.831915  -0.490940
H    -1.193803  -0.897180  -0.379680
N    -1.334118  -0.012217  2.207868
C    -2.670445  0.369356  1.814455
C    -2.718099  1.856902  1.391785
O    -2.136160  2.745277  2.085983
H    -1.119478  0.068714  3.202019
H    -2.999177  -0.253554  0.972598
C    -3.674330  0.118359  2.986566
C    -3.375246  1.121403  4.080684
O    -2.255168  1.029622  4.708312
O    -4.082933  2.177065  4.184409
H    -3.522016  -0.911078  3.334037
H    -4.705850  0.241924  2.640001
N    -3.365821  2.204608  0.283164
C    -4.094350  1.335928  -0.643768
H    -3.347620  3.201361  0.075462
H    -4.526595  1.966079  -1.425753
H    -4.913591  0.809499  -0.139727
H    -3.423367  0.610559  -1.120652
Ca    -2.096588  3.183842  4.253481
