25
Energy: -37167.1704626 eV PBE+vdW (tier 2 basis)
C    0.137721  -0.331577  0.226499
C    -0.010495  -0.032794  1.688836
O    1.027555  0.067434  2.418572
H    -0.821219  -0.415091  -0.294216
H    0.693262  -1.271774  0.113650
H    0.735260  0.458966  -0.245688
N    -1.242780  0.112196  2.164212
C    -1.683702  0.275628  3.545607
C    -3.149085  -0.231947  3.528231
O    -3.754681  -0.257328  2.454977
H    -2.058487  -0.009326  1.545528
H    -1.050026  -0.331275  4.205743
C    -1.647747  1.756491  4.029503
C    -0.200184  2.137317  4.220927
O    0.466599  1.541522  5.142346
O    0.391383  2.869232  3.356564
H    -2.179429  1.835469  4.985715
H    -2.134149  2.405298  3.293306
N    -3.709285  -0.577819  4.706769
C    -3.047979  -0.804754  5.987778
H    -4.673329  -0.889066  4.615977
H    -3.802712  -0.765515  6.779571
H    -2.305161  -0.028776  6.203929
H    -2.555723  -1.787602  6.027005
Ca    2.093834  1.490087  3.658893
