25
Energy: -37166.9519132 eV PBE+vdW (tier 2 basis)
C    0.646779  -1.512418  1.434607
C    0.279950  -0.089319  1.702476
O    0.949171  0.865359  1.233395
H    -0.154557  -2.215132  1.688172
H    0.964908  -1.642964  0.395874
H    1.505887  -1.749744  2.081425
N    -0.771710  0.187858  2.548428
C    -2.152867  -0.238915  2.273447
C    -2.298337  -0.603833  0.778198
O    -1.597829  -0.025197  -0.089866
H    -0.753941  1.184872  2.809095
H    -2.455189  -1.085752  2.907484
C    -3.098836  0.985035  2.576425
C    -2.595615  2.149196  1.722523
O    -1.535047  2.755530  2.135211
O    -3.007705  2.290338  0.536631
H    -3.031789  1.218261  3.646134
H    -4.130081  0.720181  2.320919
N    -3.205807  -1.523205  0.461290
C    -3.541404  -1.879287  -0.916011
H    -3.728557  -1.959188  1.214072
H    -4.154172  -2.784497  -0.903968
H    -2.625018  -2.068924  -1.485317
H    -4.099521  -1.067718  -1.399954
Ca    -0.691714  2.120465  0.123310
