25
Energy: -37166.4201838 eV PBE+vdW (tier 2 basis)
C    0.038121  -1.045084  0.486429
C    -0.236197  0.327327  0.987382
O    0.582708  1.279220  0.741478
H    0.724933  -1.516136  1.208143
H    0.540508  -0.996831  -0.483991
H    -0.849809  -1.680078  0.465795
N    -1.323606  0.628286  1.733591
C    -2.731604  0.218121  1.540778
C    -3.044473  -1.173456  2.136696
O    -2.169429  -2.025379  2.248528
H    -1.262712  1.582294  2.084440
H    -3.288802  0.977382  2.101960
C    -3.168702  0.321116  0.041471
C    -2.335317  1.383812  -0.655249
O    -1.534682  1.025967  -1.588402
O    -2.289119  2.575248  -0.186355
H    -4.231761  0.590932  -0.003282
H    -3.029312  -0.630823  -0.481939
N    -4.331668  -1.393902  2.510163
C    -5.488932  -0.513789  2.427753
H    -4.485634  -2.341267  2.846189
H    -5.230409  0.517937  2.696750
H    -5.950498  -0.518214  1.429095
H    -6.238556  -0.855241  3.148770
Ca    -0.151090  2.599401  -0.863972
