14
Energy: -96000.5835408 eV PBE+vdW (tier 2 basis)
N    0.356649  0.830320  0.788885
C    0.535798  0.135614  2.108839
C    1.917259  -0.513046  2.130991
O    2.527214  -0.749906  1.067925
H    -0.647006  0.828580  0.574778
H    0.575718  1.825510  0.917412
H    0.472745  0.868617  2.929210
H    -0.526834  -1.689771  1.509345
C    -0.539940  -0.943480  2.315959
H    -0.395684  -1.476241  3.263922
H    -1.531945  -0.475462  2.356549
H    1.959748  -0.652871  4.052741
O    2.474027  -0.879430  3.250510
Sr    1.960250  -0.150435  -1.072065
