20
Energy: -102204.097052 eV PBE+vdW (tier 2 basis)
N    0.255754  0.334204  0.276265
C    0.013891  0.160849  1.745024
C    1.361361  0.135129  2.451630
O    2.389614  -0.224843  1.839165
H    0.233384  1.337260  0.056953
H    -0.567166  -0.040434  -0.211649
H    -0.598306  0.989769  2.136251
C    -0.706051  -1.183681  2.027432
C    -2.160237  -1.215619  1.536561
C    -2.791151  -2.597129  1.725274
O    -3.788622  -2.805624  2.360480
O    -2.066239  -3.544744  1.066777
H    -0.688779  -1.372056  3.110940
H    -0.128460  -2.003192  1.568089
H    -2.243535  -0.977913  0.462273
H    -2.779606  -0.496747  2.085427
O    1.471793  0.416930  3.720228
H    0.639214  0.714046  4.141585
H    -2.521326  -4.402047  1.198612
Sr    2.592501  -0.678953  -0.399863
