20
Energy: -102204.599771 eV PBE+vdW (tier 2 basis)
N    -0.590824  0.174658  0.266904
C    -0.284548  -0.050468  1.644835
C    1.153859  0.223041  2.082717
O    1.485955  0.442513  3.299418
H    -0.452366  1.130865  -0.051464
H    -0.152498  -0.476558  -0.381763
H    -0.877188  0.663740  2.244930
C    -0.727133  -1.493304  2.033041
C    -0.467688  -2.018567  3.464972
C    -1.012904  -1.175109  4.584927
O    -1.981795  -1.562525  5.301375
O    -0.463072  -0.013100  4.864623
H    -0.239138  -2.197787  1.344548
H    -1.799700  -1.528715  1.803892
H    0.611843  -2.145820  3.646079
H    -0.923962  -3.011741  3.547608
O    2.065869  0.268968  1.169556
H    2.957303  0.464175  1.538514
H    0.679031  0.316967  3.967658
Sr    -1.906625  0.186491  6.825063
