20
Energy: -102205.518599 eV PBE+vdW (tier 2 basis)
N    0.280343  0.364830  0.126141
C    0.154281  0.008271  1.589827
C    1.522230  -0.605907  1.945344
O    2.400452  -0.706640  1.109260
H    0.030927  1.339751  -0.067410
H    1.290478  0.195551  -0.100517
H    0.050108  0.944021  2.156129
C    -1.054072  -0.888562  1.892845
C    -1.032154  -2.333168  1.362612
C    -1.398236  -2.579474  -0.080437
O    -1.872610  -3.716835  -0.405601
O    -1.232722  -1.677623  -1.003118
H    -1.970123  -0.370623  1.573270
H    -1.117768  -0.944761  2.987513
H    -1.719154  -2.948453  1.958772
H    -0.045949  -2.807497  1.514314
O    1.582709  -0.974897  3.217166
H    2.479257  -1.316413  3.422572
H    -0.311475  -0.284534  -0.453329
Sr    -2.150713  -3.230636  -2.636489
