20
Energy: -102204.496025 eV PBE+vdW (tier 2 basis)
N    1.030058  -1.787043  0.119894
C    0.376416  -0.714608  0.836165
C    1.251810  -0.279430  1.996566
O    2.478198  -0.582035  2.052189
H    0.566557  -1.986158  -0.765984
H    2.010672  -1.588243  -0.074794
H    0.257022  0.233011  0.251313
C    -1.041578  -1.176256  1.298016
C    -2.219607  -0.234374  1.016218
C    -2.394243  0.976646  1.881327
O    -1.548957  1.409308  2.722162
O    -3.474660  1.696349  1.819795
H    -1.036546  -1.477435  2.354710
H    -1.241903  -2.102732  0.746004
H    -3.159725  -0.806595  1.094222
H    -2.197083  0.130863  -0.027042
O    0.748720  0.454503  2.958336
H    -0.620110  0.909617  2.782205
H    -4.135406  1.352428  1.185076
Sr    2.908636  0.472153  4.079788
