20
Energy: -102203.745987 eV PBE+vdW (tier 2 basis)
N    -0.242564  -1.419839  0.123985
C    -0.216401  -0.460052  1.199676
C    1.179589  -0.222343  1.797904
O    2.110992  -0.966566  1.815548
H    0.189378  -1.059450  -0.725701
H    0.235435  -2.287763  0.370894
H    -0.560030  0.505195  0.794139
C    -1.213776  -0.948642  2.283495
C    -1.322734  -0.156322  3.620868
C    -1.744781  1.267463  3.456938
O    -2.940279  1.644706  3.720935
O    -0.932943  2.172858  3.032262
H    -0.938000  -1.973806  2.568585
H    -2.195434  -1.014657  1.797333
H    -0.354494  -0.166761  4.144230
H    -2.052456  -0.662168  4.262703
O    1.270718  1.073951  2.372977
H    2.176123  1.195402  2.728335
H    0.010935  1.790580  2.808348
Sr    -4.715939  2.873529  4.076457
