20
Energy: -102205.492579 eV PBE+vdW (tier 2 basis)
N    0.772515  -0.634840  0.687394
C    -0.210243  0.104279  1.528307
C    0.562142  1.034882  2.475846
O    1.773509  0.904295  2.678030
H    0.976292  -0.063997  -0.140061
H    0.319914  -1.470119  0.304993
H    -0.825855  0.765477  0.893641
C    -1.232216  -0.814515  2.266971
C    -0.799983  -2.203637  2.806358
C    0.325214  -2.214695  3.814325
O    1.504056  -2.041471  3.463815
O    0.095705  -2.408231  5.092739
H    -2.047164  -1.017318  1.559394
H    -1.690740  -0.236996  3.082219
H    -0.481478  -2.858228  1.982273
H    -1.701612  -2.670167  3.226681
O    -0.073055  2.005118  3.094647
H    -1.008603  2.107012  2.829163
H    -0.844206  -2.581294  5.298488
Sr    3.062526  -0.991199  2.106428
