20
Energy: -102203.487112 eV PBE+vdW (tier 2 basis)
N    0.899829  -1.718368  0.202101
C    0.614090  -0.650159  1.130028
C    1.636134  -0.590347  2.231169
O    1.395193  -0.015837  3.348279
H    0.189403  -1.763238  -0.527832
H    1.804389  -1.617555  -0.258098
H    0.675465  0.381262  0.698846
C    -0.813581  -0.817202  1.724394
C    -1.188085  0.222603  2.762486
C    -1.889374  -0.123102  3.890159
O    -2.129764  -1.279108  4.400077
O    -2.471865  0.874877  4.729722
H    -0.896633  -1.830706  2.138629
H    -1.509256  -0.760826  0.873727
H    -1.246486  1.266964  2.442549
H    0.344123  0.217727  3.365301
O    2.802113  -1.100934  2.010277
H    3.415172  -0.974583  2.768932
H    -2.392204  1.777985  4.372612
Sr    -3.495992  -0.908996  6.149760
