20
Energy: -102205.623945 eV PBE+vdW (tier 2 basis)
N    -0.011678  0.994976  0.417486
C    -0.138607  0.283371  1.721467
C    1.210033  -0.371224  2.046532
O    2.084906  -0.523967  1.185889
H    0.368201  1.930348  0.601345
H    -0.951178  1.179460  0.052564
H    -0.334516  1.006881  2.531835
C    -1.330808  -0.719081  1.758922
C    -1.684626  -1.540056  0.493953
C    -0.630577  -2.493296  -0.000702
O    0.323667  -2.139567  -0.722227
O    -0.801164  -3.733838  0.386765
H    -2.230444  -0.135016  1.995164
H    -1.194237  -1.402942  2.608485
H    -2.588304  -2.114331  0.733258
H    -1.940640  -0.879259  -0.345900
O    1.454031  -0.792644  3.266191
H    0.752221  -0.579207  3.913181
H    -0.104205  -4.325311  0.026801
Sr    1.752922  -0.325297  -1.144012
