20
Energy: -102204.636229 eV PBE+vdW (tier 2 basis)
N    0.124978  -1.283352  0.074263
C    0.143444  -0.290943  1.155867
C    1.604208  0.019037  1.430377
O    2.289852  -0.346362  2.427741
H    0.624933  -0.952423  -0.753117
H    -0.840024  -1.443011  -0.224854
H    -0.284709  0.691974  0.872624
C    -0.662507  -0.794667  2.370241
C    -0.489208  -2.288308  2.733458
C    0.379470  -2.601853  3.901388
O    0.106449  -3.543490  4.702897
O    1.484582  -1.917616  4.129606
H    -1.717459  -0.651181  2.101765
H    -0.500326  -0.133856  3.233291
H    -0.049520  -2.809034  1.857991
H    -1.454860  -2.772834  2.915233
O    2.169993  0.743808  0.512468
H    3.120212  0.910746  0.703081
H    1.839511  -1.024086  3.168446
Sr    1.945408  -3.325389  6.083732
