20
Energy: -102205.043965 eV PBE+vdW (tier 2 basis)
N    1.460808  0.365796  1.002644
C    0.195272  -0.289663  1.487742
C    0.185339  -0.246726  3.032006
O    1.011009  0.527603  3.611902
H    1.291376  0.717685  0.054631
H    2.157189  -0.377390  0.863632
H    -0.632525  0.370975  1.179143
C    -0.022986  -1.703658  0.875740
C    -1.435366  -2.071028  0.391719
C    -2.452823  -2.465452  1.430317
O    -2.372442  -2.244032  2.651189
O    -3.489123  -3.087031  0.918090
H    0.358998  -2.474461  1.561095
H    0.611837  -1.761789  -0.019423
H    -1.364353  -2.915375  -0.308796
H    -1.885734  -1.257851  -0.202422
O    -0.637128  -0.929859  3.697866
H    -1.406193  -1.561052  3.142344
H    -4.139315  -3.308923  1.619906
Sr    2.489032  1.992497  2.817655
