20
Energy: -102204.140531 eV PBE+vdW (tier 2 basis)
N    -0.708642  -0.693628  0.107715
C    -0.091251  0.014854  1.304603
C    1.416613  0.204831  1.114830
O    2.063913  0.906559  1.842047
H    -0.194497  -1.562854  -0.100275
H    -0.675215  -0.117382  -0.744024
H    -0.558448  1.006614  1.351400
C    -0.396930  -0.772871  2.598823
C    -1.857809  -0.933247  2.919716
C    -2.468708  -0.098909  3.792536
O    -2.019042  0.962299  4.392961
O    -3.816255  -0.327281  4.243014
H    0.114980  -0.219456  3.397542
H    0.091586  -1.758577  2.541588
H    -2.390025  -1.824589  2.586036
H    -1.693727  -0.920857  0.316212
O    1.879269  -0.539673  0.079873
H    2.849569  -0.418756  0.007967
H    -4.193487  -1.160565  3.911246
Sr    -3.582460  1.507685  5.883031
