20
Energy: -102205.734858 eV PBE+vdW (tier 2 basis)
N    1.324050  -0.565427  0.221911
C    0.467837  -0.080137  1.343230
C    1.308202  -0.032960  2.619863
O    2.447443  -0.513259  2.708751
H    0.717937  -0.930638  -0.518337
H    1.774603  0.248625  -0.209725
H    0.169214  0.967619  1.172310
C    -0.873293  -0.849923  1.506819
C    -0.920565  -2.388034  1.305691
C    0.007016  -3.197474  2.177255
O    1.231298  -3.229357  1.959613
O    -0.442069  -3.889840  3.198824
H    -1.573715  -0.433723  0.770479
H    -1.287627  -0.585983  2.488596
H    -0.674946  -2.652999  0.266790
H    -1.964618  -2.695591  1.454792
O    0.707392  0.596274  3.602349
H    1.278915  0.640609  4.399956
H    -1.414736  -3.854431  3.291952
Sr    3.182662  -2.223354  1.209884
