20
Energy: -102205.49087 eV PBE+vdW (tier 2 basis)
N    2.138720  1.742262  1.090809
C    1.217139  0.535064  1.099095
C    -0.146934  1.159748  1.468754
O    -0.216526  2.318364  1.832608
H    2.430065  2.016337  0.144607
H    2.980811  1.608161  1.663027
H    1.170804  0.133787  0.077991
C    1.732169  -0.532618  2.085244
C    0.976695  -1.863491  1.995780
C    1.544097  -2.966752  2.866004
O    0.923803  -4.088638  2.895109
O    2.614496  -2.793373  3.551679
H    1.687843  -0.135549  3.110786
H    2.794005  -0.714324  1.859484
H    0.970176  -2.253602  0.965141
H    -0.083364  -1.760550  2.265216
O    -1.154412  0.307831  1.338354
H    -1.995135  0.760881  1.566005
H    1.539964  2.513876  1.499895
Sr    2.459584  -5.002411  4.365414
