20
Energy: -102204.588395 eV PBE+vdW (tier 2 basis)
N    -0.868219  0.781902  0.301082
C    -0.593956  0.172365  1.581350
C    0.774795  0.563155  2.208645
O    1.689051  -0.267323  2.431247
H    -1.271182  1.714248  0.377110
H    -0.069663  0.821326  -0.331620
H    -1.372368  0.493085  2.290652
C    -0.537464  -1.352407  1.495728
C    -1.637815  -2.249508  0.954591
C    -1.084364  -3.669354  0.997749
O    0.066804  -3.903688  1.426648
O    -1.798524  -4.686145  0.589644
H    -0.340614  -1.697854  2.527464
H    0.334926  -1.554158  0.844857
H    -1.914982  -1.983650  -0.077532
H    -2.561950  -2.200666  1.551740
O    0.910078  1.843781  2.432184
H    1.799381  2.061583  2.787594
H    -2.686225  -4.434443  0.263216
Sr    1.936787  -2.700731  2.316518
