20
Energy: -102205.472973 eV PBE+vdW (tier 2 basis)
N    1.181267  -1.933237  1.300244
C    0.473539  -0.610860  1.219651
C    1.325506  0.512055  1.811806
O    2.528347  0.268255  2.175233
H    0.587494  -2.573541  0.628193
H    1.193590  -2.317747  2.252024
H    0.394520  -0.398418  0.141198
C    -0.946535  -0.673370  1.822542
C    -1.785444  -1.948048  1.542263
C    -1.653013  -2.562538  0.164455
O    -0.570099  -2.928895  -0.312863
O    -2.801386  -2.712118  -0.466304
H    -1.478118  0.208957  1.446293
H    -0.889764  -0.553734  2.913641
H    -2.837849  -1.720410  1.743163
H    -1.508810  -2.748890  2.246979
O    0.821919  1.678803  1.895454
H    2.156840  -1.862751  0.986623
H    -2.656051  -3.170106  -1.322778
Sr    2.836049  2.577591  2.713183
