20
Energy: -102205.500397 eV PBE+vdW (tier 2 basis)
N    0.524027  -1.558054  0.156301
C    0.243536  -0.384896  1.062810
C    1.551974  0.075117  1.732757
O    2.523768  -0.664145  1.889880
H    1.234898  -1.342388  -0.554557
H    -0.331911  -1.837678  -0.341584
H    -0.131575  0.434394  0.432692
C    -0.841451  -0.749993  2.124503
C    -0.817951  -2.195012  2.695540
C    0.581306  -2.665466  3.026595
O    1.109330  -2.429972  4.147790
O    1.279226  -3.208177  2.069216
H    -1.827471  -0.577758  1.673380
H    -0.755034  -0.028372  2.948348
H    -1.269292  -2.900783  1.985498
H    -1.432245  -2.203291  3.603644
O    1.599960  1.303162  2.202212
H    0.817354  1.855066  2.001088
H    0.860191  -2.392932  0.777220
Sr    3.305362  -2.577823  3.275665
