20
Energy: -102203.711433 eV PBE+vdW (tier 2 basis)
N    -0.175189  0.031137  0.101936
C    0.184413  -0.048850  1.493620
C    1.686624  -0.123222  1.789322
O    2.605226  -0.222416  1.039885
H    0.157949  0.892749  -0.330431
H    0.213440  -0.743970  -0.438335
H    -0.149540  0.890310  1.970629
C    -0.534437  -1.255034  2.179134
C    -1.619493  -0.876516  3.188417
C    -1.202264  -0.342865  4.526152
O    -2.100010  -0.183344  5.433612
O    -0.004928  -0.029575  4.854866
H    0.179440  -1.953960  2.637243
H    -1.031468  -1.813006  1.376515
H    -2.266729  -1.741977  3.406310
H    -2.307679  -0.126115  2.757279
O    1.889619  -0.048733  3.197821
H    2.847167  -0.103262  3.393468
H    0.761403  -0.102248  4.132047
Sr    -3.158362  0.253115  7.289258
