20
Energy: -102205.374106 eV PBE+vdW (tier 2 basis)
N    -0.621142  0.970456  2.238968
C    0.671265  0.284304  1.827846
C    1.265496  1.279762  0.805784
O    0.651353  2.285125  0.498614
H    -1.457361  0.409353  2.037710
H    -0.624193  1.840127  1.625203
H    1.332576  0.241003  2.703515
C    0.440329  -1.113296  1.241138
C    0.047863  -2.208938  2.240836
C    1.182473  -2.844681  3.023375
O    2.387082  -2.412591  2.923679
O    0.910531  -3.852609  3.766723
H    1.369840  -1.398877  0.732438
H    -0.325318  -1.044656  0.452423
H    -0.444827  -3.034005  1.704591
H    -0.708209  -1.887032  2.976203
O    2.449997  0.899875  0.355848
H    2.784363  1.562859  -0.286019
H    -0.645272  1.253001  3.224792
Sr    3.145155  -4.240179  4.230335
