20
Energy: -102205.366204 eV PBE+vdW (tier 2 basis)
N    0.154127  0.280484  -0.559317
C    0.023583  -0.077278  0.911287
C    1.300069  0.522918  1.526829
O    2.220048  0.891980  0.824171
H    -0.435809  1.079111  -0.826234
H    -0.067813  -0.505375  -1.183095
H    -0.860528  0.436274  1.310522
C    -0.112116  -1.603735  1.073049
C    -0.383729  -2.085204  2.508489
C    0.783554  -2.708111  3.245647
O    1.940931  -2.825111  2.702789
O    0.568771  -3.165533  4.424388
H    0.794512  -2.092466  0.685816
H    -0.955362  -1.917413  0.440904
H    -1.167445  -2.857027  2.497764
H    -0.792051  -1.296508  3.157184
O    1.248418  0.581976  2.855192
H    2.062167  1.022867  3.179407
H    1.162163  0.563093  -0.672372
Sr    2.658510  -4.137940  4.537581
