20
Energy: -102205.819704 eV PBE+vdW (tier 2 basis)
N    1.649343  -0.724000  0.369176
C    0.585821  -0.074867  1.194038
C    1.154492  0.232035  2.575731
O    2.177797  -0.306717  3.022706
H    1.193991  -1.272243  -0.366543
H    2.146942  0.013510  -0.141132
H    0.305010  0.891935  0.748288
C    -0.738757  -0.882997  1.284501
C    -0.889071  -2.057335  2.282394
C    -0.047537  -3.283750  2.020896
O    1.194452  -3.233657  1.980174
O    -0.604573  -4.459609  1.845714
H    -0.994134  -1.213764  0.266574
H    -1.519740  -0.161448  1.557726
H    -1.953843  -2.325483  2.307121
H    -0.643281  -1.729122  3.306111
O    0.437703  1.104423  3.244356
H    0.824883  1.282657  4.129541
H    -1.580481  -4.438867  1.901638
Sr    3.242984  -2.157702  1.908989
