20
Energy: -102204.460259 eV PBE+vdW (tier 2 basis)
N    0.134556  -0.553078  -0.228242
C    0.032138  -0.113660  1.134191
C    1.373036  0.433866  1.607889
O    2.418673  0.388400  0.905989
H    -0.767493  -0.631369  -0.691581
H    0.656663  -1.418821  -0.352448
H    -0.631373  0.771366  1.133011
C    -0.527471  -1.133263  2.207908
C    -1.778725  -0.695109  2.980568
C    -1.630748  0.370528  4.026130
O    -0.599521  1.081034  4.219537
O    -2.608578  0.649393  4.837071
H    0.252779  -1.455995  2.912942
H    -0.807172  -2.033229  1.647096
H    -2.221005  -1.569756  3.487232
H    -2.565775  -0.341888  2.288658
O    1.444576  0.986547  2.798461
H    0.237344  0.957698  3.572918
H    -3.400035  0.090899  4.698087
Sr    3.749188  1.630880  2.347305
