20
Energy: -102204.133458 eV PBE+vdW (tier 2 basis)
N    -0.086363  -0.558565  0.073195
C    0.294349  -0.402335  1.528107
C    1.538233  -1.294613  1.670451
O    1.825410  -2.103129  0.809772
H    0.371819  -1.456236  -0.226282
H    0.294877  0.192579  -0.515136
H    0.535124  0.650758  1.712323
C    -0.857517  -0.876038  2.459122
C    -2.163204  -0.176204  2.238477
C    -2.788170  0.709742  3.046253
O    -3.945419  1.278493  2.882987
O    -2.257122  1.161708  4.306624
H    -0.469431  -0.766418  3.482885
H    -0.983317  -1.962946  2.320325
H    -2.779610  -0.474817  1.388331
H    -1.105604  -0.583432  -0.060685
O    2.170149  -1.086120  2.819842
H    2.938400  -1.693220  2.884641
H    -1.441029  0.706361  4.574470
Sr    -4.409433  2.377156  4.740673
