20
Energy: -102204.578056 eV PBE+vdW (tier 2 basis)
N    0.957997  -0.577368  -0.127739
C    0.203414  -0.194524  1.040515
C    1.091007  -0.320503  2.275473
O    2.111480  -1.063005  2.293968
H    1.081571  -1.584704  -0.224007
H    0.551455  -0.211079  -0.986420
H    -0.006503  0.884372  0.948548
C    -1.158526  -0.945494  1.212082
C    -2.034084  -0.681932  2.474310
C    -2.301583  0.756564  2.751288
O    -1.417143  1.565617  3.197115
O    -3.494411  1.199109  2.519485
H    -0.970143  -2.027875  1.188208
H    -1.747024  -0.710677  0.315319
H    -1.550578  -1.098678  3.370760
H    -2.995427  -1.193559  2.349125
O    0.816125  0.385542  3.351059
H    -0.469943  1.104071  3.302849
H    -3.587243  2.157167  2.727018
Sr    3.005259  -0.221351  4.258793
