20
Energy: -102204.563293 eV PBE+vdW (tier 2 basis)
N    0.006011  0.952786  0.930057
C    0.112794  0.043048  2.042154
C    1.558098  -0.174214  2.414816
O    1.933554  -1.022965  3.292905
H    -0.962981  1.075527  0.640666
H    0.399967  1.875374  1.113393
H    -0.330134  0.412333  3.001571
C    -0.572909  -1.321662  1.695561
C    -1.580428  -1.867285  2.711058
C    -1.084727  -2.526156  3.967589
O    -1.889570  -3.211582  4.670898
O    0.154230  -2.429980  4.380875
H    0.174840  -2.084562  1.437934
H    -1.115807  -1.142603  0.759352
H    -2.226283  -2.615558  2.226263
H    -2.286536  -1.083581  3.038836
O    2.445568  0.561497  1.836200
H    3.357059  0.365670  2.150527
H    1.146163  -1.596534  3.701991
Sr    -0.382143  -3.912717  6.266740
