20
Energy: -102205.680042 eV PBE+vdW (tier 2 basis)
N    0.710672  -0.626050  -0.054663
C    0.348196  -0.350370  1.377250
C    1.542377  0.274778  2.105142
O    1.364864  0.753744  3.271463
H    0.068494  -1.466992  -0.408990
H    1.704489  -0.886683  -0.119295
H    -0.465926  0.388772  1.383960
C    -0.119984  -1.635880  2.096760
C    -1.502004  -2.185992  1.702765
C    -1.602460  -2.834535  0.341184
O    -0.872332  -2.568505  -0.624002
O    -2.577945  -3.717998  0.266706
H    -0.162306  -1.392215  3.166224
H    0.648661  -2.416661  1.984698
H    -2.269869  -1.394358  1.736682
H    -1.821547  -2.923249  2.451102
O    2.690670  0.289029  1.538174
H    0.575447  0.193413  -0.656751
H    -2.634615  -4.080866  -0.643387
Sr    3.618120  1.401617  3.441977
