20
Energy: -102204.147558 eV PBE+vdW (tier 2 basis)
N    -0.127758  -0.300002  0.014552
C    -0.320511  0.020470  1.486581
C    0.968940  0.543710  2.124035
O    0.992135  0.999793  3.232588
H    -0.183136  0.534214  -0.583347
H    0.801374  -0.721787  -0.134186
H    -1.073445  0.818003  1.539964
C    -0.831753  -1.243734  2.209890
C    -2.093578  -1.792819  1.605042
C    -2.264121  -3.116974  1.375017
O    -1.436450  -4.114489  1.469279
O    -3.550662  -3.644174  0.997006
H    -0.985787  -0.941325  3.257153
H    -0.044756  -2.012612  2.219432
H    -0.872414  -0.971862  -0.255677
H    -2.965383  -1.138303  1.542406
O    2.030275  0.375174  1.292563
H    2.838827  0.699764  1.741650
H    -4.253788  -2.971026  1.000519
Sr    -2.711316  -5.942026  1.310511
