20
Energy: -102204.370351 eV PBE+vdW (tier 2 basis)
N    -0.336481  -0.279176  0.082173
C    -0.053156  -0.269986  1.563404
C    1.472532  -0.073155  1.636188
O    2.133120  0.067431  0.623099
H    -1.091487  0.352415  -0.203336
H    0.577838  -0.005441  -0.363430
H    -0.531867  0.612872  2.007585
C    -0.582414  -1.558025  2.229516
C    -0.168858  -2.816388  1.517233
C    -1.054025  -3.800396  1.230183
O    -2.345892  -3.854630  1.364456
O    -0.609779  -5.071835  0.718465
H    -1.678033  -1.501718  2.287310
H    -0.215944  -1.544394  3.267285
H    0.895137  -3.023741  1.387171
H    -0.555298  -1.253352  -0.197661
O    1.916657  -0.066813  2.884830
H    2.881599  0.108726  2.889754
H    0.359410  -5.143650  0.665067
Sr    -2.882673  -5.988449  0.985656
