20
Energy: -102204.804825 eV PBE+vdW (tier 2 basis)
N    0.800161  0.491235  -0.353521
C    0.157615  -0.042478  0.892020
C    0.691141  0.789177  2.080738
O    1.319364  1.808978  1.905808
H    1.728559  0.053169  -0.421057
H    1.046992  1.470839  -0.111171
H    -0.916059  0.210400  0.848887
C    0.323329  -1.575383  1.033033
C    -0.981207  -2.378750  1.080908
C    -1.805923  -2.341756  -0.177377
O    -1.513139  -1.618533  -1.156497
O    -2.887478  -3.070774  -0.289755
H    0.874483  -1.798384  1.954242
H    0.951722  -1.953521  0.212986
H    -1.625192  -2.037815  1.911393
H    -0.762092  -3.435085  1.310345
O    0.320188  0.264953  3.251395
H    0.635544  0.840969  3.980023
H    -3.066606  -3.626760  0.496298
Sr    -0.629357  0.062427  -2.411706
