20
Energy: -102205.59774 eV PBE+vdW (tier 2 basis)
N    0.921884  -0.779913  0.731791
C    -0.210095  -0.060203  1.385558
C    0.363211  1.086354  2.225483
O    1.533877  1.071190  2.620365
H    1.092563  -0.342341  -0.180019
H    0.612066  -1.728829  0.501885
H    -0.863738  0.374548  0.611237
C    -1.130132  -0.977461  2.244204
C    -0.744285  -1.368419  3.692273
C    0.418247  -2.321455  3.853184
O    1.548869  -2.063269  3.407570
O    0.272561  -3.455755  4.497897
H    -1.342844  -1.878773  1.649776
H    -2.098767  -0.465532  2.326581
H    -1.643815  -1.787950  4.162386
H    -0.490982  -0.473577  4.285607
O    -0.409210  2.087091  2.585435
H    -1.298892  2.070236  2.180072
H    -0.633923  -3.599883  4.834473
Sr    3.075404  -0.716057  2.297242
