29
Energy: -173816.715052 eV PBE+vdW (tier 2 basis)
C    -1.912067  -1.853107  0.707858
C    -0.887988  -1.107750  1.499508
O    0.341266  -1.310657  1.152652
H    -2.933684  -1.618746  1.022156
H    -1.725409  -2.931922  0.792971
H    -1.787229  -1.593414  -0.353604
N    -1.303689  -0.299233  2.472441
C    -0.586257  0.811030  3.125582
C    0.127775  0.376337  4.427643
O    1.190944  -0.350767  4.388703
H    -2.362421  -0.204182  2.560402
H    0.246228  1.119145  2.463587
C    -1.494108  2.067811  3.203402
C    -2.855111  2.068948  3.938286
C    -3.996208  1.318798  3.271985
O    -3.867171  0.271855  2.638133
O    -5.162428  1.904223  3.486300
H    -1.669456  2.376047  2.162949
H    -0.880423  2.870629  3.637412
H    -3.164630  3.114727  4.062081
H    -2.821611  1.666699  4.965372
N    -0.300773  0.770310  5.605642
C    0.345790  0.431799  6.881803
H    -1.133506  1.351090  5.636901
H    -0.138308  1.008547  7.673563
H    1.411117  0.684133  6.839051
H    0.236201  -0.639835  7.087856
H    -5.883377  1.370896  3.087930
Cd    1.893533  -1.032413  2.519432
