29
Energy: -173815.729437 eV PBE+vdW (tier 2 basis)
C    -0.601709  -0.195388  -0.191884
C    -0.561898  0.214770  1.251929
O    -0.038242  1.265787  1.633773
H    0.362588  0.032956  -0.659285
H    -1.363211  0.411207  -0.702767
H    -0.840400  -1.257129  -0.323697
N    -1.145309  -0.617541  2.178963
C    -1.236659  -0.171054  3.566149
C    -0.662703  -1.278272  4.456978
O    -1.475187  -2.037580  5.108337
H    -1.657501  -1.439043  1.869804
H    -0.542600  0.690615  3.604880
C    -2.656202  0.341073  3.887743
C    -2.851923  1.187785  5.185886
C    -2.951580  0.285297  6.374502
O    -1.938988  -0.017892  7.042156
O    -4.083179  -0.333229  6.670542
H    -3.382460  -0.482769  3.842233
H    -2.907840  1.018927  3.060871
H    -3.770969  1.780756  5.080090
H    -2.017594  1.884143  5.334977
N    0.644533  -1.479366  4.492893
C    1.708173  -0.770420  3.769707
H    0.939349  -2.314220  5.000351
H    2.626652  -0.838025  4.360309
H    1.455728  0.283583  3.626435
H    1.874819  -1.237904  2.790597
H    -4.849338  -0.017726  6.149599
Cd    -1.655905  -2.182830  7.266073
