29
Energy: -173816.296716 eV PBE+vdW (tier 2 basis)
C    0.107999  -2.016436  -0.035126
C    -0.158507  -1.081508  1.102784
O    0.593238  -0.146421  1.406428
H    1.121404  -2.424113  0.065160
H    0.090538  -1.435785  -0.968227
H    -0.614474  -2.836042  -0.113812
N    -1.315592  -1.286719  1.832817
C    -1.739900  -0.304458  2.821476
C    -0.945513  -0.518721  4.146494
O    -1.408700  -1.048868  5.246834
H    -1.883013  -2.109096  1.651328
H    -1.391418  0.669037  2.437381
C    -3.272326  -0.267938  2.925483
C    -3.856427  1.058401  3.499757
C    -5.106468  0.871645  4.337451
O    -5.136547  0.133575  5.363093
O    -6.222647  1.478797  4.065542
H    -3.654178  -1.157638  3.465261
H    -3.669499  -0.401050  1.910600
H    -4.038538  1.764477  2.679819
H    -3.132160  1.567450  4.162012
N    0.321535  -0.208256  4.071427
C    1.322418  -0.380450  5.122398
H    0.632008  0.037629  3.091263
H    0.858393  -0.310447  6.109687
H    1.806953  -1.361063  5.019504
H    2.079664  0.400727  5.003376
H    -6.185503  2.048731  3.270472
Cd    -3.351961  -0.861966  5.878280
