29
Energy: -173816.04348 eV PBE+vdW (tier 2 basis)
C    -0.549636  -0.226934  -0.500874
C    -1.074378  -0.234844  0.903056
O    -1.953396  -1.024945  1.282539
H    -1.393487  -0.260961  -1.199481
H    0.035709  -1.145038  -0.654773
H    0.084925  0.638369  -0.721153
N    -0.531871  0.663538  1.790008
C    -0.759317  0.544115  3.227567
C    -2.170779  1.096491  3.590373
O    -2.293032  2.146484  4.306605
H    0.170798  1.318356  1.457479
H    -0.805200  -0.533669  3.457266
C    0.401886  1.176309  4.010460
C    0.557399  0.758696  5.508279
C    -0.472613  1.415257  6.377595
O    -1.549904  0.841566  6.651363
O    -0.321520  2.660092  6.795192
H    0.384259  2.271483  3.915026
H    1.325051  0.827006  3.527083
H    1.565175  1.043732  5.842124
H    0.464556  -0.329006  5.619293
N    -3.197777  0.390568  3.153396
C    -4.574103  0.716049  3.444815
H    -2.934548  -0.398328  2.503396
H    -5.226585  -0.073084  3.059459
H    -4.864165  1.691392  3.033738
H    -4.747876  0.745873  4.552384
H    0.557701  3.038707  6.592244
Cd    -3.329195  2.065582  6.222730
