29
Energy: -173815.980208 eV PBE+vdW (tier 2 basis)
C    0.188859  -1.355003  1.206778
C    -0.198189  -0.578176  2.417777
O    0.539453  -0.732248  3.473916
H    -0.435445  -1.147373  0.333397
H    0.191906  -2.430472  1.426987
H    1.229412  -1.090141  0.964241
N    -1.218986  0.265790  2.452553
C    -2.364199  0.493513  1.570848
C    -2.506768  2.048910  1.574124
O    -2.186045  2.633111  2.611394
H    -1.253114  0.967243  3.212546
H    -2.174783  0.077478  0.574260
C    -3.663115  -0.078490  2.207626
C    -3.667906  -1.574528  2.565614
C    -2.762301  -1.967424  3.703293
O    -2.501482  -1.198444  4.653098
O    -2.181555  -3.157497  3.711039
H    -4.486344  0.096581  1.501975
H    -3.897092  0.509797  3.105785
H    -3.447904  -2.212199  1.695589
H    -4.691893  -1.845953  2.881659
N    -3.011268  2.631741  0.473969
C    -3.218461  4.072186  0.353898
H    -3.196909  2.058061  -0.344677
H    -2.452663  4.516646  -0.297235
H    -3.153243  4.522545  1.347780
H    -4.205822  4.260964  -0.084613
H    -2.474595  -3.738498  2.979740
Cd    -0.414031  -1.077869  5.347568
