29
Energy: -173816.398902 eV PBE+vdW (tier 2 basis)
C    -1.204919  -0.536473  -0.208093
C    -0.784236  -0.424277  1.220850
O    0.468999  -0.531012  1.458616
H    -0.650104  0.196234  -0.808717
H    -2.281441  -0.398294  -0.354233
H    -0.918517  -1.532517  -0.576973
N    -1.732481  -0.230856  2.149555
C    -1.710484  -0.324462  3.630423
C    -1.161249  0.944894  4.306432
O    0.104746  1.155392  4.453991
H    -2.670632  -0.149792  1.763634
H    -2.768164  -0.406337  3.924177
C    -1.100002  -1.630156  4.181500
C    -1.454421  -1.918968  5.646786
C    -2.954691  -2.027249  5.911646
O    -3.804072  -1.377297  5.320900
O    -3.206541  -2.894475  6.889175
H    0.010649  -1.675984  4.099754
H    -1.449623  -2.447594  3.535098
H    -1.067705  -1.136157  6.320052
H    -0.971369  -2.851295  5.963094
N    -1.979752  1.845461  4.809955
C    -3.446139  1.895039  4.855212
H    -1.500713  2.629196  5.262407
H    -3.757515  2.916057  4.607989
H    -3.794569  1.643981  5.864368
H    -3.895149  1.201825  4.142002
H    -4.171198  -2.914406  7.065612
Cd    1.422941  0.022905  3.253825
