29
Energy: -173816.586454 eV PBE+vdW (tier 2 basis)
C    0.027873  -0.897829  -0.361800
C    0.078939  -0.450806  1.061366
O    1.231850  -0.450193  1.628218
H    0.417062  -1.926123  -0.413100
H    0.701786  -0.277516  -0.967432
H    -0.981388  -0.878559  -0.786419
N    -1.065615  -0.102234  1.664994
C    -1.439739  0.037009  3.094950
C    -1.124757  1.395119  3.745623
O    -0.026757  2.058904  3.573678
H    -1.867554  -0.102458  1.038601
H    -2.534076  0.002571  3.061931
C    -0.981617  -1.148365  4.002690
C    -2.084375  -2.186637  4.245357
C    -3.315129  -1.636811  4.946062
O    -3.596106  -0.443409  5.036655
O    -4.075195  -2.608173  5.432709
H    -0.649419  -0.747807  4.972020
H    -0.116527  -1.657217  3.558742
H    -1.689735  -3.020984  4.840770
H    -2.421948  -2.644228  3.300746
N    -2.051957  1.856142  4.549911
C    -1.965134  3.068940  5.360698
H    -2.868227  1.233325  4.684185
H    -2.612693  3.843008  4.927895
H    -0.935480  3.432702  5.389520
H    -2.320753  2.838944  6.371307
H    -4.877992  -2.226004  5.846592
Cd    1.719947  1.034654  3.038184
