29
Energy: -173816.529835 eV PBE+vdW (tier 2 basis)
C    0.628397  0.684363  0.247556
C    0.147896  0.983933  1.624281
O    0.795115  1.908959  2.265156
H    1.677847  0.359931  0.301054
H    0.608964  1.603301  -0.354010
H    0.032492  -0.093966  -0.240365
N    -0.875565  0.306545  2.121847
C    -1.470272  0.327276  3.458407
C    -2.211807  -1.059971  3.532572
O    -2.688836  -1.478837  2.483931
H    -1.355892  -0.399018  1.537263
H    -0.674101  0.356763  4.229091
C    -2.516671  1.479859  3.590917
C    -3.044664  1.794774  4.997863
C    -2.204146  2.656152  5.914433
O    -1.044074  3.094291  5.681782
O    -2.681021  3.013067  7.073894
H    -3.374239  1.189240  2.966061
H    -2.161109  2.405279  3.096717
H    -3.277868  0.864781  5.545698
H    -4.015300  2.309825  4.900167
N    -2.319130  -1.636259  4.741091
C    -3.003530  -2.923860  4.927204
H    -1.722765  -1.311770  5.495798
H    -3.365755  -2.987627  5.957593
H    -2.321455  -3.759854  4.726395
H    -3.848070  -2.980367  4.234586
H    -3.593203  2.700552  7.246027
Cd    0.141192  2.719274  4.021455
