29
Energy: -173816.473147 eV PBE+vdW (tier 2 basis)
C    -1.221185  1.004014  1.017519
C    -0.738405  0.597656  2.370167
O    0.298051  1.222942  2.817423
H    -1.512523  2.063856  1.049274
H    -2.075586  0.402271  0.689955
H    -0.400182  0.920016  0.293577
N    -1.399031  -0.358059  3.021444
C    -1.206681  -0.725761  4.419132
C    0.019477  -1.652429  4.637273
O    1.031701  -1.160946  5.278638
H    -2.276451  -0.779979  2.597697
H    -0.906818  0.190420  4.963744
C    -2.531953  -1.080543  5.151560
C    -3.449465  -2.250654  4.767751
C    -4.096198  -2.199746  3.398612
O    -3.632260  -1.615227  2.416236
O    -5.222204  -2.893729  3.358572
H    -3.121040  -0.151653  5.119420
H    -2.260407  -1.216841  6.208452
H    -4.255253  -2.287361  5.514319
H    -2.952971  -3.226851  4.861247
N    0.122898  -2.895312  4.214700
C    -0.769172  -3.718055  3.396271
H    1.011832  -3.333657  4.471410
H    -1.237660  -4.499722  4.006531
H    -0.158216  -4.204179  2.626077
H    -1.526919  -3.106876  2.903335
H    -5.600355  -2.865377  2.453828
Cd    1.394304  0.821781  4.579210
