29
Energy: -173815.969673 eV PBE+vdW (tier 2 basis)
C    -1.151618  -0.647458  -0.305868
C    -0.590473  -0.386990  1.068402
O    0.435684  -0.860554  1.497830
H    -1.448487  0.273264  -0.826973
H    -2.026113  -1.314301  -0.251385
H    -0.384958  -1.158824  -0.894896
N    -1.317490  0.496727  1.924717
C    -2.682233  0.915645  1.781898
C    -2.849491  2.252702  1.012655
O    -4.014045  2.630281  0.602839
H    -0.908237  0.521702  2.858730
H    -3.214352  0.182963  1.134588
C    -3.383344  0.998138  3.169894
C    -3.901560  -0.334308  3.728544
C    -5.237316  -0.849322  3.230237
O    -5.986601  -0.299332  2.381510
O    -5.705966  -1.965781  3.715403
H    -4.187879  1.757445  3.183206
H    -2.656120  1.411716  3.883876
H    -4.002217  -0.248338  4.823967
H    -3.159324  -1.136212  3.572784
N    -1.780925  2.965264  0.779002
C    -1.707918  4.242433  0.063422
H    -0.914230  2.546543  1.133659
H    -1.331158  5.014498  0.745168
H    -2.699242  4.519321  -0.301385
H    -1.012815  4.139964  -0.778240
H    -5.134909  -2.380752  4.394629
Cd    -5.608180  1.386705  1.164540
