29
Energy: -173816.805742 eV PBE+vdW (tier 2 basis)
C    0.425288  0.373799  -0.388508
C    0.189417  -0.032812  1.032175
O    0.963880  -0.921908  1.511980
H    1.432010  0.806516  -0.471873
H    -0.311055  1.087446  -0.772139
H    0.416504  -0.527828  -1.016461
N    -0.829348  0.562727  1.677910
C    -1.511106  0.384667  2.988966
C    -0.667419  0.817371  4.195914
O    0.506984  0.375290  4.424721
H    -1.299963  1.251197  1.096117
H    -2.321733  1.119700  2.920155
C    -2.274512  -0.956323  3.184009
C    -1.528205  -2.286063  3.403262
C    -0.973306  -2.471415  4.795108
O    -1.518192  -2.348791  5.842349
O    0.428851  -2.868770  4.755323
H    -2.906666  -1.076490  2.294099
H    -2.966014  -0.806366  4.026509
H    -0.785673  -2.496234  2.622606
H    -2.274694  -3.092512  3.304704
N    -1.194058  1.671884  5.059558
C    -2.498908  2.347260  5.028838
H    -0.590840  1.875520  5.858205
H    -2.547326  3.013532  5.894490
H    -3.323516  1.628317  5.107284
H    -2.608068  2.961155  4.126233
H    0.694180  -3.096907  5.675360
Cd    1.472691  -1.317612  3.520123
