29
Energy: -173816.562539 eV PBE+vdW (tier 2 basis)
C    -0.687993  -0.557790  0.163620
C    -0.305386  -0.187960  1.547792
O    0.912509  -0.244685  1.912914
H    -0.184778  -1.504840  -0.084142
H    -0.289767  0.183776  -0.545735
H    -1.767272  -0.674758  0.030970
N    -1.238177  0.203925  2.468476
C    -2.237187  1.253500  2.274626
C    -1.532270  2.576941  1.870064
O    -0.302155  2.794365  2.127240
H    -0.889434  0.143379  3.427133
H    -2.904415  0.963356  1.451797
C    -3.121602  1.433053  3.546089
C    -2.489310  1.227551  4.957663
C    -1.216938  1.995184  5.241593
O    -0.107028  1.520409  4.924410
O    -1.237741  3.176468  5.813897
H    -3.944140  0.708864  3.489008
H    -3.584474  2.426950  3.497025
H    -2.260822  0.165003  5.120901
H    -3.266034  1.485764  5.691180
N    -2.218531  3.514733  1.232584
C    -3.619870  3.533454  0.802990
H    -1.674726  4.355430  1.027344
H    -3.671417  3.980287  -0.195695
H    -4.224615  4.139257  1.490329
H    -4.036968  2.524074  0.750524
H    -2.126465  3.441115  6.125133
Cd    1.182477  1.547695  3.154447
