29
Energy: -173817.082766 eV PBE+vdW (tier 2 basis)
C    0.306377  0.882340  1.967397
C    -1.138141  1.127693  1.661367
O    -1.517678  2.320534  1.483438
H    0.563430  -0.175513  2.085892
H    0.576208  1.430126  2.880258
H    0.909591  1.309502  1.153872
N    -1.938272  0.041745  1.576730
C    -3.338425  -0.204917  1.145250
C    -3.914675  0.792627  0.122163
O    -4.411384  1.920779  0.450279
H    -1.441086  -0.828485  1.752583
H    -3.245266  -1.151804  0.598087
C    -4.330456  -0.584599  2.290107
C    -5.109564  0.447290  3.150143
C    -4.310994  1.235492  4.161163
O    -3.799375  2.353959  3.934859
O    -4.114596  0.761862  5.369971
H    -3.789278  -1.280705  2.947921
H    -5.108470  -1.191900  1.805604
H    -5.876493  -0.127241  3.690615
H    -5.657192  1.152150  2.511907
N    -3.998725  0.413953  -1.144783
C    -3.582415  -0.841256  -1.783717
H    -4.452812  1.103750  -1.747018
H    -4.267351  -1.661779  -1.533123
H    -2.553620  -1.102093  -1.511982
H    -3.615088  -0.688898  -2.866411
H    -4.593227  -0.072651  5.541846
Cd    -3.444021  3.128043  1.955578
