29
Energy: -173816.644999 eV PBE+vdW (tier 2 basis)
C    -1.183056  2.281787  2.140689
C    -0.245887  1.239918  1.651550
O    0.987805  1.650752  1.497431
H    -1.726755  1.943920  3.032777
H    -1.917311  2.533415  1.360676
H    -0.619659  3.186686  2.386263
N    -0.585193  -0.002492  1.378007
C    -1.934900  -0.574281  1.443934
C    -2.006038  -1.643885  2.566913
O    -0.954674  -2.205377  3.009175
H    0.134257  -0.673473  1.050603
H    -2.617859  0.233541  1.728275
C    -2.411149  -1.099047  0.045154
C    -1.377809  -1.812876  -0.867045
C    -0.578807  -2.794638  -0.036749
O    -1.117183  -3.884873  0.329773
O    0.544254  -2.394099  0.447637
H    -2.790621  -0.234798  -0.515895
H    -3.265113  -1.767245  0.212192
H    -0.695174  -1.098361  -1.339293
H    -1.922942  -2.344624  -1.655262
N    -3.192810  -1.934430  3.084741
C    -4.523303  -1.400350  2.782592
H    -3.158847  -2.655506  3.807313
H    -5.073536  -1.284367  3.722452
H    -5.075394  -2.092819  2.133497
H    -4.463397  -0.423435  2.294702
H    1.611674  0.981883  1.146610
Cd    0.198850  -3.884531  2.121516
