29
Energy: -173816.699838 eV PBE+vdW (tier 2 basis)
C    0.814728  -0.098587  0.302438
C    0.567093  -0.000355  1.770720
O    1.282105  0.834130  2.426503
H    1.875482  -0.317351  0.123112
H    0.612143  0.883726  -0.150092
H    0.189767  -0.852639  -0.188116
N    -0.390271  -0.769665  2.313995
C    -1.009925  -0.654150  3.643946
C    -0.260251  -1.494186  4.710326
O    0.725599  -0.962848  5.373867
H    -0.838288  -1.418765  1.671227
H    -0.850328  0.388236  3.970654
C    -2.565111  -0.802494  3.584352
C    -3.250699  -1.640356  2.495975
C    -3.184692  -3.148855  2.609394
O    -2.479229  -3.772957  3.398992
O    -3.991330  -3.736306  1.737521
H    -2.952062  0.216846  3.458278
H    -2.907365  -1.124227  4.577043
H    -2.945031  -1.358719  1.474265
H    -4.318856  -1.374156  2.508451
N    -0.627149  -2.714590  4.969605
C    0.015770  -3.583989  5.958741
H    -1.427834  -3.112888  4.401885
H    -0.263487  -3.270981  6.973191
H    1.105883  -3.538528  5.861089
H    -0.334251  -4.605109  5.787113
H    -3.941837  -4.710453  1.840261
Cd    1.629732  0.722353  4.514065
