29
Energy: -173816.722946 eV PBE+vdW (tier 2 basis)
C    -0.796822  2.118262  2.551918
C    0.043938  1.099607  1.875007
O    1.277324  1.477021  1.650327
H    -1.243200  1.717305  3.471929
H    -1.609696  2.450307  1.889098
H    -0.179975  2.985812  2.803434
N    -0.377049  -0.093724  1.510088
C    -1.739146  -0.621854  1.646081
C    -1.756130  -1.810954  2.652691
O    -0.714684  -2.477969  2.925353
H    0.276027  -0.753294  1.049182
H    -2.358366  0.169030  2.086386
C    -2.368515  -0.962207  0.251754
C    -1.469725  -1.621973  -0.828424
C    -0.657478  -2.726594  -0.188474
O    -1.220758  -3.827642  0.102400
O    0.523171  -2.435009  0.231535
H    -2.741276  -0.021424  -0.174877
H    -3.245221  -1.598332  0.430858
H    -0.792509  -0.894100  -1.288125
H    -2.116627  -2.035804  -1.610375
N    -2.923280  -2.060935  3.229257
C    -3.160672  -3.162764  4.166339
H    -3.716346  -1.463636  3.006105
H    -4.053516  -2.932649  4.754266
H    -2.301107  -3.269067  4.835212
H    -3.327647  -4.102476  3.622078
H    1.837112  0.824524  1.180725
Cd    0.246527  -4.099542  1.746784
