29
Energy: -173816.878239 eV PBE+vdW (tier 2 basis)
C    -0.609108  0.304111  -0.573988
C    -0.590216  -0.289122  0.794100
O    0.265494  -1.187073  1.059792
H    -0.762348  -0.496801  -1.310012
H    0.376513  0.742707  -0.783429
H    -1.381393  1.070411  -0.699778
N    -1.492174  0.161830  1.704402
C    -1.444841  -0.318111  3.075969
C    -2.187625  -1.661341  3.263006
O    -1.490406  -2.726350  3.382879
H    -2.147267  0.881844  1.411528
H    -0.392698  -0.576709  3.171856
C    -1.552925  0.687437  4.233596
C    -0.872875  0.102459  5.507354
C    0.613401  -0.233683  5.399837
O    1.109170  -1.063430  4.609752
O    1.465362  0.357970  6.206516
H    -2.584709  0.951199  4.494126
H    -1.048176  1.615249  3.929249
H    -1.373488  -0.832193  5.809802
H    -1.032516  0.808895  6.331499
N    -3.505504  -1.749311  3.300008
C    -4.520420  -0.702758  3.175798
H    -3.854997  -2.703758  3.414801
H    -5.237847  -0.993512  2.399393
H    -4.072439  0.252652  2.894032
H    -5.057263  -0.582736  4.125183
H    1.044882  0.989957  6.821856
Cd    0.609045  -2.396554  2.880702
