29
Energy: -173815.897594 eV PBE+vdW (tier 2 basis)
C    -0.258742  0.169206  0.025177
C    -0.283512  0.073866  1.511821
O    0.702332  0.446479  2.225790
H    0.530531  -0.489918  -0.365240
H    0.006427  1.194003  -0.267694
H    -1.209154  -0.107711  -0.442835
N    -1.393736  -0.365575  2.128180
C    -1.517203  -0.581265  3.571839
C    -2.645961  -1.616135  3.864970
O    -3.481708  -1.382803  4.728589
H    -2.223728  -0.502438  1.551769
H    -0.565205  -1.031114  3.898451
C    -1.784668  0.709018  4.387964
C    -0.969317  0.824484  5.706421
C    0.471687  1.030133  5.350787
O    1.221313  0.052875  5.124265
O    0.959694  2.236451  5.119665
H    -2.843606  0.686048  4.690496
H    -1.624714  1.592758  3.757734
H    -1.071506  -0.085920  6.309882
H    -1.349277  1.668663  6.297719
N    -2.632838  -2.755952  3.125437
C    -3.613446  -3.818456  3.319856
H    -1.813977  -2.967432  2.560925
H    -3.728447  -4.374002  2.383223
H    -4.566141  -3.372709  3.623927
H    -3.290216  -4.513913  4.109383
H    0.344247  2.958798  5.359819
Cd    2.507820  0.224087  3.355845
