29
Energy: -173816.750608 eV PBE+vdW (tier 2 basis)
C    0.638263  0.142884  0.337848
C    0.060929  -0.077937  1.694621
O    0.041713  -1.245116  2.184236
H    0.128824  -0.518900  -0.376383
H    1.696293  -0.155016  0.344990
H    0.555966  1.178954  -0.007520
N    -0.454589  1.001082  2.348014
C    -0.953407  0.878146  3.703774
C    -2.434465  1.130096  3.930442
O    -2.999894  0.443679  4.885796
H    -0.271444  1.911551  1.932245
H    -0.907334  -0.202668  3.849554
C    -0.066004  1.547275  4.801895
C    -0.053366  0.788389  6.171650
C    0.062913  -0.672309  5.806220
O    1.201447  -1.139650  5.485017
O    -1.020550  -1.324527  5.545654
H    -0.370142  2.587001  4.981471
H    0.957530  1.566763  4.406242
H    -0.961298  0.969765  6.757380
H    0.814589  1.121357  6.750660
N    -3.156282  1.991183  3.266009
C    -4.587950  2.264020  3.476752
H    -2.692156  2.529938  2.537790
H    -5.022391  1.481611  4.102528
H    -5.084977  2.287595  2.501179
H    -4.701225  3.238524  3.967969
H    -2.382471  -0.267989  5.251165
Cd    0.309846  -2.469953  3.992150
