29
Energy: -173816.241953 eV PBE+vdW (tier 2 basis)
C    0.075955  -0.446999  0.205806
C    0.176050  -0.137239  1.662742
O    1.224455  0.465937  2.067772
H    0.949284  -1.036184  -0.103469
H    0.119482  0.499546  -0.353373
H    -0.844720  -0.977375  -0.060288
N    -0.844672  -0.488046  2.463918
C    -1.113667  -0.043489  3.844399
C    -0.469489  -1.009299  4.866573
O    0.779924  -0.923561  5.144108
H    -1.600623  -0.998829  2.011186
H    -0.593381  0.920200  3.984152
C    -2.618392  0.207822  4.038643
C    -3.129424  1.400880  3.215510
C    -4.615484  1.687717  3.395801
O    -5.072937  2.807871  3.392216
O    -5.348589  0.564417  3.524696
H    -2.793756  0.406015  5.105913
H    -3.196814  -0.693810  3.778052
H    -2.984021  1.238998  2.135231
H    -2.597879  2.325244  3.474931
N    -1.212658  -1.923212  5.453556
C    -0.747812  -2.911233  6.434367
H    -2.206712  -1.930108  5.232236
H    -1.221105  -2.709746  7.403241
H    0.337366  -2.846955  6.532219
H    -1.035590  -3.913009  6.094910
H    -6.293228  0.817518  3.597225
Cd    2.085002  0.348950  4.021503
