29
Energy: -173817.058573 eV PBE+vdW (tier 2 basis)
C    0.765046  1.107112  1.913201
C    -0.127082  -0.083480  2.022652
O    0.382443  -1.196736  2.357231
H    1.281918  1.253839  2.871612
H    0.228469  2.023367  1.644936
H    1.541349  0.903124  1.162912
N    -1.449032  0.078182  1.765305
C    -2.396979  -1.012699  1.939464
C    -2.500385  -1.919426  0.695208
O    -1.814350  -2.996260  0.676250
H    -1.768483  1.003187  1.487427
H    -1.881033  -1.638160  2.661138
C    -3.694663  -0.719126  2.723355
C    -3.529092  -1.165670  4.200452
C    -3.206459  -2.636211  4.430266
O    -2.205410  -3.270351  4.018487
O    -4.100592  -3.228829  5.185768
H    -4.539977  -1.252077  2.268208
H    -3.952279  0.348232  2.710912
H    -4.441625  -0.936893  4.761334
H    -2.712763  -0.591723  4.669827
N    -3.272775  -1.572259  -0.316754
C    -3.433156  -2.333249  -1.562243
H    -3.818244  -0.717695  -0.226197
H    -4.445128  -2.753802  -1.609678
H    -2.697282  -3.139656  -1.588145
H    -3.281228  -1.660945  -2.414004
H    -3.851038  -4.162019  5.368097
Cd    -0.547168  -3.191774  2.453979
