26
Energy: -238668.558917 eV PBE+vdW (tier 2 basis)
N    1.593432  1.368176  0.203376
C    0.658130  0.783029  1.208644
C    1.505869  0.073237  2.275524
O    2.746404  0.132321  2.251182
H    1.650594  0.727772  -0.597042
H    1.164168  2.215031  -0.182032
H    0.188443  1.629288  1.741439
C    -0.481146  -0.067772  0.564207
C    -1.674157  -0.411802  1.485461
C    -3.004399  -0.761353  0.772510
C    -3.041426  -2.143838  0.117579
N    -4.444725  -2.477711  -0.372465
H    -0.044954  -0.976984  0.121594
H    -0.857196  0.542899  -0.270795
H    -1.900808  0.457829  2.122391
H    -1.428986  -1.252579  2.157773
H    -3.237262  0.017850  0.029825
H    -3.795322  -0.709504  1.536812
H    -2.774934  -2.941414  0.823000
H    -2.389592  -2.224845  -0.760838
H    -4.477433  -3.410052  -0.813285
H    -5.127813  -2.484981  0.400819
H    -4.784256  -1.799251  -1.071031
O    0.947489  -0.568302  3.269359
H    -0.030962  -0.556001  3.246497
Ba    4.383689  1.595131  1.148271
