26
Energy: -238669.355877 eV PBE+vdW (tier 2 basis)
N    -0.930691  0.482635  0.623476
C    -0.326772  0.387822  2.019615
C    0.936430  1.288579  1.988718
O    1.073632  2.060418  0.976776
H    -0.521014  1.337867  0.186086
H    -1.957212  0.548820  0.631604
H    -1.039663  0.892988  2.690772
C    -0.154358  -1.082799  2.455645
C    0.004965  -1.256050  3.979542
C    0.196622  -2.709809  4.469440
C    -1.079446  -3.554198  4.478712
N    -0.848240  -4.892824  5.169309
H    0.707062  -1.522784  1.928460
H    -1.050601  -1.624595  2.111476
H    -0.859678  -0.807506  4.494344
H    0.882584  -0.686789  4.309814
H    0.583769  -2.647713  5.498331
H    0.976346  -3.210021  3.873053
H    -1.447749  -3.798680  3.474825
H    -1.889158  -3.067166  5.037055
H    -1.706421  -5.465296  5.179782
H    -0.554923  -4.768406  6.150345
H    -0.116853  -5.448719  4.701207
O    1.742471  1.282626  2.959180
H    -0.670764  -0.321283  0.034454
Ba    3.145659  3.254884  2.030980
