26
Energy: -238668.519146 eV PBE+vdW (tier 2 basis)
N    2.164530  -0.496678  0.113749
C    1.230020  -0.132784  1.216270
C    1.537462  -1.038285  2.416407
O    2.543569  -1.766049  2.429901
H    1.709385  -1.186658  -0.494332
H    2.290933  0.325794  -0.484450
H    1.532379  0.872711  1.560574
C    -0.273736  -0.022665  0.826559
C    -0.981802  -1.332945  0.434105
C    -2.370755  -1.163464  -0.230103
C    -3.492668  -0.738312  0.720606
N    -4.843676  -0.755807  0.016707
H    -0.320681  0.698055  -0.004424
H    -0.803343  0.480921  1.652903
H    -1.069605  -2.003878  1.303571
H    -0.371576  -1.880682  -0.301168
H    -2.634994  -2.134678  -0.676107
H    -2.294262  -0.446777  -1.063270
H    -3.372286  0.282261  1.104169
H    -3.591883  -1.422985  1.572689
H    -5.078285  -1.695343  -0.338889
H    -5.604018  -0.475900  0.655710
H    -4.870664  -0.110475  -0.787307
O    0.778097  -1.022950  3.482639
H    0.031566  -0.394295  3.426098
Ba    4.616194  -1.824844  1.096403
