26
Energy: -238668.713356 eV PBE+vdW (tier 2 basis)
N    0.357498  -0.412406  -0.137937
C    0.626953  -0.744012  1.293988
C    2.044049  -1.326797  1.380323
O    2.747889  -1.463693  0.366518
H    -0.252604  -1.140757  -0.526774
H    -0.215823  0.436138  -0.169968
H    0.667341  0.209235  1.849392
C    -0.495115  -1.631935  1.916320
C    -0.523904  -1.775047  3.453433
C    -1.841506  -2.419884  3.945565
C    -1.858322  -2.579419  5.467938
N    -3.157943  -3.200057  5.961044
H    -0.465514  -2.627977  1.446513
H    -1.439320  -1.162859  1.600279
H    -0.412875  -0.784684  3.924500
H    0.307971  -2.409260  3.804190
H    -1.968319  -3.403558  3.466376
H    -2.689409  -1.792572  3.628201
H    -1.769943  -1.616340  5.986392
H    -1.057185  -3.238644  5.825265
H    -3.151314  -3.304584  6.987784
H    -3.978397  -2.622983  5.722034
H    -3.315385  -4.138240  5.563172
O    2.568745  -1.658744  2.533233
H    1.977595  -1.498542  3.295497
Ba    2.733826  -0.464962  -1.878852
