26
Energy: -238669.313793 eV PBE+vdW (tier 2 basis)
N    -0.342595  0.222253  0.159304
C    -0.321027  0.311201  1.681076
C    0.737331  1.390592  2.024766
O    1.144549  2.129069  1.061068
H    0.227497  -0.560307  -0.191481
H    0.085620  1.106502  -0.192275
H    -1.291323  0.748603  1.966739
C    -0.187414  -1.085998  2.319756
C    -0.594915  -1.128798  3.808779
C    -1.007451  -2.517729  4.346921
C    0.139882  -3.508951  4.540539
N    -0.350425  -4.779791  5.224961
H    0.836592  -1.462428  2.170735
H    -0.859944  -1.753301  1.755420
H    -1.469852  -0.478365  3.953484
H    0.200972  -0.699393  4.431973
H    -1.774934  -2.957274  3.689412
H    -1.494505  -2.346975  5.319776
H    0.928781  -3.105573  5.187899
H    0.595927  -3.835370  3.597767
H    -0.751014  -4.580495  6.154306
H    0.416104  -5.455907  5.362745
H    -1.081790  -5.256021  4.675888
O    1.108252  1.556350  3.218732
H    -1.291879  0.115599  -0.222827
Ba    2.446564  3.714511  2.667534
