26
Energy: -238668.557181 eV PBE+vdW (tier 2 basis)
N    0.826551  0.691726  0.073431
C    0.713653  0.371884  1.526852
C    1.773268  1.213013  2.260061
O    2.294146  2.196493  1.708573
H    1.459525  0.010344  -0.361289
H    -0.080583  0.515132  -0.368383
H    -0.249935  0.792075  1.867958
C    0.727541  -1.152672  1.862774
C    -0.068440  -1.541061  3.129935
C    0.046555  -3.015104  3.587807
C    -0.761653  -4.009049  2.750198
N    -0.768441  -5.388957  3.395741
H    1.768866  -1.507134  1.928998
H    0.286233  -1.664704  0.995414
H    -1.128649  -1.277370  2.989165
H    0.241980  -0.940541  4.002658
H    -0.318313  -3.053492  4.625946
H    1.104981  -3.318773  3.617681
H    -0.359760  -4.153950  1.740077
H    -1.815418  -3.713723  2.667381
H    -1.313340  -6.062444  2.835336
H    0.181948  -5.776312  3.496635
H    -1.190296  -5.368274  4.337088
O    2.129628  0.945089  3.488145
H    1.676001  0.163947  3.864752
Ba    2.060826  3.340716  -0.448616
