26
Energy: -238669.378293 eV PBE+vdW (tier 2 basis)
N    1.019913  -0.073286  0.266040
C    0.050749  0.067510  1.435226
C    0.910748  0.557906  2.631281
O    2.125881  0.873683  2.391156
H    1.233975  -1.056250  0.050438
H    0.693666  0.379482  -0.596687
H    -0.622699  0.900778  1.181592
C    -0.758205  -1.205511  1.715107
C    -1.816613  -1.573773  0.652933
C    -2.568476  -2.863292  1.044954
C    -3.514448  -3.463543  0.002731
N    -4.878921  -2.781880  -0.074026
H    -1.247153  -1.040290  2.686152
H    -0.064194  -2.049076  1.870129
H    -1.342206  -1.729038  -0.330593
H    -2.513124  -0.727469  0.534809
H    -3.100152  -2.725577  2.000682
H    -1.831980  -3.657131  1.243100
H    -3.733555  -4.510149  0.244899
H    -3.102223  -3.431206  -1.013733
H    -5.373855  -2.822842  0.829314
H    -4.818916  -1.793168  -0.352607
H    -5.480996  -3.253509  -0.767015
O    0.378914  0.668972  3.769273
H    1.904861  0.385360  0.590470
Ba    2.451009  1.707300  4.879378
