26
Energy: -238669.354307 eV PBE+vdW (tier 2 basis)
N    1.018074  -0.163622  -0.292067
C    0.469009  -0.072195  1.127219
C    1.703194  0.182706  2.034574
O    2.817564  0.424414  1.457555
H    0.500932  0.407350  -0.972004
H    2.006124  0.180180  -0.223341
H    -0.128610  0.851960  1.167992
C    -0.390677  -1.273189  1.540964
C    -1.804680  -1.334544  0.922016
C    -2.645666  -2.449004  1.581822
C    -4.153969  -2.436714  1.322898
N    -4.575760  -3.054486  -0.008836
H    -0.483499  -1.198950  2.634512
H    0.164757  -2.207440  1.352491
H    -1.744013  -1.484014  -0.169502
H    -2.304613  -0.365630  1.080637
H    -2.555413  -2.347670  2.674307
H    -2.230440  -3.444492  1.354941
H    -4.576402  -1.424033  1.334387
H    -4.674158  -3.028581  2.085254
H    -5.603957  -3.051463  -0.099273
H    -4.202784  -2.548007  -0.822965
H    -4.272149  -4.036764  -0.084118
O    1.554841  0.194277  3.286962
H    1.045126  -1.131737  -0.638932
Ba    3.961168  0.927648  3.793508
