26
Energy: -238668.538705 eV PBE+vdW (tier 2 basis)
N    0.773714  0.310414  -0.084030
C    0.400860  -0.064956  1.309822
C    1.666799  0.016402  2.183382
O    2.750411  0.393882  1.706575
H    0.822259  -0.543188  -0.650512
H    0.012086  0.853647  -0.498346
H    -0.258791  0.730290  1.700635
C    -0.327299  -1.430155  1.439948
C    -1.769396  -1.469758  0.891412
C    -2.366848  -2.887688  1.018224
C    -3.739682  -3.126968  0.384042
N    -4.917299  -2.687909  1.251435
H    -0.354361  -1.728161  2.500344
H    0.287881  -2.199745  0.943921
H    -1.782880  -1.172225  -0.169142
H    -2.379660  -0.728646  1.433569
H    -2.380444  -3.212429  2.071842
H    -1.695678  -3.599754  0.514112
H    -3.898633  -4.198169  0.213048
H    -3.860459  -2.609764  -0.576126
H    -5.812109  -2.907846  0.786231
H    -4.923958  -3.179465  2.157795
H    -4.920597  -1.677141  1.444555
O    1.634189  -0.262900  3.459131
H    0.759316  -0.540710  3.795920
Ba    3.516851  1.537688  -0.305870
