26
Energy: -238668.484603 eV PBE+vdW (tier 2 basis)
N    0.414513  0.546811  0.377305
C    0.164986  -0.101272  1.695884
C    1.526042  -0.341048  2.376932
O    2.581171  0.055853  1.853148
H    0.329685  -0.164090  -0.357069
H    -0.339169  1.211658  0.185510
H    -0.333482  0.646656  2.338621
C    -0.717471  -1.377059  1.647394
C    -2.222178  -1.141669  1.391032
C    -3.017977  -2.452879  1.578939
C    -4.541186  -2.344012  1.689091
N    -5.271210  -2.262916  0.350550
H    -0.628250  -1.907978  2.608987
H    -0.296663  -2.071117  0.901021
H    -2.376233  -0.725124  0.382428
H    -2.594307  -0.389395  2.105032
H    -2.709747  -2.911565  2.531194
H    -2.745067  -3.193988  0.810068
H    -4.862575  -1.466505  2.264197
H    -4.949668  -3.236081  2.178480
H    -6.292367  -2.227776  0.497265
H    -5.018138  -1.428764  -0.195691
H    -5.082068  -3.090677  -0.234186
O    1.613846  -0.918249  3.544836
H    0.759979  -1.200186  3.929276
Ba    3.229839  1.608223  0.092673
