26
Energy: -238669.151697 eV PBE+vdW (tier 2 basis)
N    1.499855  0.359625  0.247926
C    1.221389  -0.334032  1.576999
C    2.140956  -1.584995  1.591476
O    2.997773  -1.690108  0.647057
H    1.614746  1.377828  0.335610
H    0.755691  0.185052  -0.442522
H    1.599443  0.340309  2.360485
C    -0.291414  -0.593168  1.756316
C    -0.749118  -0.874042  3.207055
C    -0.966185  0.373738  4.092667
C    -2.328997  1.066370  3.987485
N    -3.409068  0.374389  4.814782
H    -0.580081  -1.437292  1.112723
H    -0.828168  0.287834  1.366932
H    -0.025028  -1.539894  3.692773
H    -1.674374  -1.466968  3.142272
H    -0.216047  1.146748  3.865249
H    -0.774075  0.117974  5.146390
H    -2.716892  1.107685  2.961541
H    -2.284113  2.091036  4.374777
H    -4.313095  0.864367  4.727687
H    -3.167095  0.366517  5.817296
H    -3.566408  -0.602280  4.528485
O    2.049046  -2.423349  2.529610
H    2.379755  -0.067238  -0.121459
Ba    4.048501  -3.851107  1.688388
