26
Energy: -238668.538355 eV PBE+vdW (tier 2 basis)
N    0.806636  0.838379  3.074284
C    0.495062  -0.355871  3.909328
C    1.810813  -1.108376  4.163634
O    2.906159  -0.578659  3.911854
H    0.712736  0.587950  2.084047
H    0.079184  1.542378  3.232681
H    0.221233  0.027899  4.909105
C    -0.698319  -1.236891  3.444038
C    -0.537651  -1.960577  2.093585
C    -1.598522  -3.048213  1.793602
C    -3.002742  -2.518644  1.493083
N    -3.932245  -3.645977  1.061692
H    -1.584048  -0.584192  3.443516
H    -0.907480  -1.971199  4.241884
H    0.436880  -2.471936  2.057552
H    -0.529842  -1.235318  1.263963
H    -1.640358  -3.760964  2.632883
H    -1.237983  -3.615814  0.921834
H    -3.003196  -1.797829  0.665519
H    -3.484786  -2.052110  2.360861
H    -4.031683  -4.367592  1.791784
H    -4.879328  -3.293283  0.853523
H    -3.591698  -4.119425  0.210757
O    1.817881  -2.296330  4.709626
H    0.927289  -2.644432  4.914671
Ba    3.626290  1.715365  3.396310
