26
Energy: -238669.286287 eV PBE+vdW (tier 2 basis)
N    0.554055  -0.106969  0.255705
C    0.312181  -0.225262  1.757592
C    1.672907  -0.665803  2.362148
O    1.751881  -0.897116  3.599278
H    0.071510  -0.841968  -0.278890
H    0.284717  0.803023  -0.137713
H    0.121972  0.792641  2.128776
C    -0.848921  -1.170947  2.100802
C    -2.278427  -0.685555  1.760509
C    -2.868306  0.322920  2.764326
C    -4.273927  0.843060  2.449879
N    -5.386599  -0.162260  2.736171
H    -0.770638  -1.375472  3.178321
H    -0.666005  -2.138000  1.605264
H    -2.901605  -1.592085  1.720424
H    -2.320333  -0.262698  0.742438
H    -2.242325  1.227379  2.814176
H    -2.845852  -0.095928  3.783718
H    -4.392097  1.130559  1.397388
H    -4.509843  1.716616  3.068880
H    -5.397282  -0.447349  3.726833
H    -6.309793  0.252392  2.533624
H    -5.311752  -1.016454  2.166522
O    2.671724  -0.745443  1.568447
H    1.587971  -0.242896  0.139125
Ba    4.282785  -1.356384  3.576256
