26
Energy: -238668.324372 eV PBE+vdW (tier 2 basis)
N    0.676283  -0.102076  0.281572
C    0.479742  -0.233473  1.753892
C    1.733458  -0.889355  2.357044
O    2.608717  -1.398083  1.636576
H    -0.110411  -0.542538  -0.201206
H    0.633932  0.884602  0.015488
H    0.428417  0.774776  2.199014
C    -0.797310  -1.033176  2.160475
C    -2.096718  -0.246553  2.447899
C    -2.802389  0.416266  1.248970
C    -4.310290  0.638236  1.410276
N    -4.698479  1.672664  2.463357
H    -0.577199  -1.611501  3.069659
H    -0.980553  -1.799343  1.388840
H    -1.895615  0.494096  3.239131
H    -2.780881  -0.985013  2.895104
H    -2.735586  -0.243950  0.369344
H    -2.313665  1.359446  0.955827
H    -4.825729  -0.286710  1.698934
H    -4.752671  0.996391  0.473111
H    -5.724658  1.782171  2.495864
H    -4.399205  1.406354  3.411959
H    -4.305978  2.603194  2.258102
O    1.919407  -0.926605  3.650295
H    1.221821  -0.492508  4.181172
Ba    3.307842  -1.354677  -0.689424
