18
Energy: -98106.8700562 eV PBE+vdW (tier 2 basis)
N    0.275855  -0.075363  -0.117177
C    0.142957  0.160186  1.364302
C    1.513917  0.054845  2.024306
O    2.526714  -0.264935  1.370218
H    -0.226179  0.677670  -0.593532
H    -0.235046  1.177328  1.549077
C    -0.849461  -0.916783  1.874134
C    -0.614417  -2.084136  0.911079
C    -0.428848  -1.386679  -0.435346
H    -1.871395  -0.526409  1.783204
H    -0.696081  -1.193414  2.924313
H    -1.453345  -2.788353  0.891841
H    0.280102  -2.657425  1.197808
H    -1.387758  -1.180294  -0.927548
H    0.162529  -1.990907  -1.149053
O    1.661698  0.293889  3.299297
H    0.835329  0.548937  3.758569
Sr    2.692429  -0.464156  -0.914493
