18
Energy: -98107.0283803 eV PBE+vdW (tier 2 basis)
N    0.140278  0.316978  0.190469
C    0.109067  0.146850  1.685309
C    1.530096  0.090409  2.221010
O    2.535046  0.222612  1.486121
H    -0.578219  1.004885  -0.046973
H    -0.370071  1.017306  2.158358
C    -0.691722  -1.148907  1.942171
C    -0.323308  -2.017787  0.736102
C    -0.276009  -1.016812  -0.422317
H    -1.761845  -0.903468  1.945294
H    -0.455957  -1.609834  2.907029
H    -1.052575  -2.813791  0.550557
H    0.651910  -2.504931  0.884544
H    -1.249508  -0.900016  -0.913845
H    0.435015  -1.329042  -1.212770
O    1.607593  -0.096592  3.508221
H    2.537954  -0.110498  3.824896
Sr    2.454256  0.722639  -0.786174
