18
Energy: -98107.7608374 eV PBE+vdW (tier 2 basis)
N    -0.267384  0.251756  -0.009729
C    0.111586  0.020112  1.451374
C    1.609600  -0.270547  1.525778
O    2.134768  -0.466888  2.665225
H    -0.584705  1.213134  -0.178282
H    -0.078199  0.936014  2.025478
C    -0.787083  -1.151445  1.910173
C    -1.127917  -1.894281  0.611232
C    -1.342632  -0.769675  -0.391349
H    -1.692567  -0.746482  2.379443
H    -0.282280  -1.772154  2.657506
H    -2.024954  -2.515388  0.709467
H    -0.306522  -2.551754  0.291637
H    -2.312606  -0.276242  -0.259113
H    -1.214077  -1.037909  -1.444623
O    2.303177  -0.299883  0.446167
H    0.600124  0.110176  -0.559812
Sr    4.291673  -0.685545  1.761430
