32
Energy: -606845.735195 eV PBE+vdW (tier 2 basis)
C    -0.433707  0.963353  -0.016612
C    -0.383204  0.618081  1.430306
O    0.680465  0.876925  2.098409
H    -0.286965  2.047589  -0.126987
H    -1.377820  0.677649  -0.491595
H    0.402212  0.476707  -0.537400
N    -1.445600  0.058645  2.014648
C    -1.530648  -0.199253  3.453156
C    -0.564797  -1.333287  3.872883
O    0.453163  -0.985050  4.593413
H    -2.286731  -0.090473  1.456475
H    -1.073867  0.677211  3.940832
C    -2.968367  -0.210321  4.026744
C    -4.087625  -1.153120  3.537193
C    -5.324739  -0.885133  4.410352
C    -4.449902  -0.984556  2.052984
H    -3.322106  0.827620  3.908243
H    -2.843298  -0.349274  5.111703
H    -3.788989  -2.195858  3.719846
H    -6.137673  -1.570631  4.142063
H    -5.696586  0.140134  4.272561
H    -5.108601  -1.027303  5.477129
H    -5.360973  -1.547791  1.815516
H    -3.690166  -1.370134  1.349798
H    -4.658360  0.067932  1.805661
N    -0.673930  -2.605276  3.554662
C    -1.629478  -3.320261  2.708862
H    0.069877  -3.183603  3.953927
H    -2.251820  -3.980882  3.324511
H    -1.062924  -3.933477  1.997691
H    -2.264670  -2.626132  2.159560
Pb    1.824144  0.690279  4.024437
