32
Energy: -606846.09572 eV PBE+vdW (tier 2 basis)
C    -0.182594  1.108435  0.405143
C    -0.463524  0.621276  1.784013
O    0.393122  0.853642  2.710199
H    0.780831  0.707040  0.062969
H    -0.075572  2.202854  0.437698
H    -0.965642  0.846049  -0.313706
N    -1.607465  -0.018272  2.032873
C    -2.131971  -0.403645  3.357501
C    -1.448349  -1.712965  3.795826
O    -0.305853  -1.663006  4.386186
H    -2.238589  -0.146069  1.242878
H    -1.794338  0.363020  4.072597
C    -3.669728  -0.380485  3.340219
C    -4.356986  -0.248693  4.721828
C    -4.172982  -1.462794  5.639742
C    -3.974786  1.057300  5.430481
H    -4.071815  -1.251266  2.792684
H    -3.956566  0.496523  2.739413
H    -5.429162  -0.183982  4.478594
H    -4.787618  -1.347892  6.540832
H    -3.133769  -1.577843  5.987588
H    -4.486397  -2.401686  5.160890
H    -4.610421  1.210342  6.310949
H    -4.100806  1.934578  4.781373
H    -2.937073  1.047398  5.803033
N    -2.018365  -2.866930  3.540234
C    -1.492200  -4.190756  3.879138
H    -2.953677  -2.832359  3.137150
H    -0.456882  -4.100899  4.212771
H    -1.548180  -4.835138  2.994451
H    -2.102191  -4.627931  4.680308
Pb    1.234548  -0.049851  4.562145
