32
Energy: -606845.288398 eV PBE+vdW (tier 2 basis)
C    -1.196001  0.581160  3.217645
C    -2.171048  0.210296  4.277562
O    -1.856305  0.381640  5.514940
H    -1.662524  1.202348  2.443909
H    -0.806980  -0.320259  2.716342
H    -0.354762  1.113427  3.670780
N    -3.375810  -0.325807  4.006654
C    -3.623440  -1.387188  3.013279
C    -2.755223  -2.594699  3.451169
O    -2.214599  -2.644290  4.622779
H    -4.009401  -0.331090  4.806278
H    -4.667911  -1.691299  3.193413
C    -3.522608  -0.947649  1.526232
C    -4.709206  -1.368816  0.629120
C    -4.555668  -0.698348  -0.741659
C    -4.876575  -2.885499  0.478177
H    -2.570943  -1.284138  1.085215
H    -3.491281  0.149190  1.522736
H    -5.624974  -0.972996  1.102091
H    -3.657414  -1.056229  -1.265765
H    -4.485483  0.393830  -0.655124
H    -5.419221  -0.923528  -1.378987
H    -5.713557  -3.113566  -0.193534
H    -5.112452  -3.401520  1.423411
H    -3.989007  -3.347452  0.007787
N    -2.596393  -3.598986  2.622248
C    -1.859205  -4.831904  2.920062
H    -3.072060  -3.535684  1.718313
H    -2.250342  -5.298092  3.831584
H    -0.792039  -4.615556  3.050282
H    -1.986853  -5.516434  2.077866
Pb    -1.713093  -1.608502  6.573285
