32
Energy: -606845.481873 eV PBE+vdW (tier 2 basis)
C    0.346521  1.235290  -0.053488
C    0.172646  0.435575  1.183323
O    1.194939  0.080782  1.872660
H    0.710957  2.244530  0.191802
H    -0.559926  1.298944  -0.661754
H    1.148561  0.764315  -0.642326
N    -1.046544  0.063657  1.627521
C    -2.210958  0.945824  1.706071
C    -1.822919  2.165700  2.574190
O    -0.817226  2.135217  3.369130
H    -1.039304  -0.690492  2.315167
H    -2.465989  1.299709  0.696192
C    -3.429246  0.189628  2.291358
C    -3.459433  -0.099891  3.809261
C    -4.809849  -0.750908  4.155302
C    -2.329468  -0.998334  4.337386
H    -3.529787  -0.745295  1.717198
H    -4.323592  0.778795  2.044409
H    -3.408348  0.862717  4.347558
H    -4.915808  -1.731736  3.671231
H    -5.647179  -0.121309  3.827176
H    -4.909643  -0.897632  5.237466
H    -2.507370  -1.283292  5.381911
H    -1.337842  -0.480597  4.353700
H    -2.215167  -1.929536  3.760998
N    -2.566616  3.249508  2.493556
C    -2.361640  4.469758  3.285488
H    -3.355160  3.235843  1.849732
H    -3.053999  5.233506  2.922990
H    -1.332565  4.826555  3.167933
H    -2.559806  4.272495  4.346002
Pb    0.897957  0.771956  4.030398
