32
Energy: -606844.744403 eV PBE+vdW (tier 2 basis)
C    0.112844  -0.134128  -0.065572
C    0.003565  -0.190051  1.416506
O    1.115965  -0.241369  2.114114
H    0.698739  0.747589  -0.360499
H    -0.868039  -0.097035  -0.549423
H    0.658980  -1.019578  -0.421325
N    -1.161321  -0.203491  2.000960
C    -1.530260  -0.274699  3.412329
C    -3.101092  -0.314896  3.303630
O    -3.592438  -0.187830  2.176384
H    -2.077643  -0.160935  1.463299
H    -1.188385  -1.238157  3.826749
C    -0.973348  0.908883  4.248994
C    0.070485  0.535890  5.319664
C    1.015650  1.707464  5.614100
C    -0.537472  -0.037216  6.605484
H    -1.803504  1.418761  4.759792
H    -0.569141  1.658986  3.554546
H    0.659258  -0.350749  4.909227
H    0.455582  2.563020  6.021916
H    1.486670  2.150142  4.702212
H    1.795959  1.462188  6.348938
H    0.233464  -0.333465  7.327200
H    -1.155005  -0.923281  6.407054
H    -1.166765  0.726422  7.085350
N    -3.790519  -0.483617  4.434704
C    -5.254524  -0.550027  4.484213
H    -3.285907  -0.624085  5.303849
H    -5.636022  0.182703  5.204218
H    -5.577150  -1.555350  4.780543
H    -5.645601  -0.322934  3.489404
Pb    2.558581  0.028503  3.642708
