32
Energy: -606844.699005 eV PBE+vdW (tier 2 basis)
C    0.302395  -0.249143  0.285579
C    0.037775  -0.672732  1.686883
O    0.806839  -1.601300  2.205265
H    -0.390752  0.528171  -0.050680
H    0.206125  -1.127008  -0.370718
H    1.336107  0.109528  0.185913
N    -0.949043  -0.148801  2.365268
C    -1.559721  -0.563797  3.629784
C    -3.055788  -0.140814  3.378170
O    -3.249090  0.681815  2.474378
H    -1.647583  0.504176  1.910066
H    -1.462103  -1.653460  3.743840
C    -1.039257  0.173896  4.883853
C    0.371639  -0.164808  5.412216
C    1.496043  0.619372  4.712529
C    0.471309  0.009912  6.932303
H    -1.748841  -0.048424  5.691419
H    -1.107639  1.258889  4.710676
H    0.481695  -1.289482  5.250553
H    1.420134  1.688852  4.970312
H    1.460484  0.624177  3.607283
H    2.509933  0.362782  5.085838
H    1.476098  -0.220034  7.310396
H    -0.247775  -0.628472  7.458675
H    0.253144  1.055236  7.195683
N    -4.027927  -0.649921  4.142872
C    -3.950717  -1.641530  5.209944
H    -4.950208  -0.272480  3.926751
H    -4.840212  -2.279076  5.165080
H    -3.915571  -1.168745  6.201645
H    -3.077518  -2.290883  5.083807
Pb    2.192608  -1.964081  3.792640
