32
Energy: -606846.16061 eV PBE+vdW (tier 2 basis)
C    1.027092  -1.130449  1.027710
C    0.072824  -0.078276  1.474621
O    0.410818  1.154675  1.358960
H    1.232148  -0.980139  -0.042680
H    0.651905  -2.147474  1.181423
H    1.984142  -1.007708  1.552250
N    -1.116475  -0.436382  1.957436
C    -2.260906  0.445407  2.251239
C    -2.086999  1.067689  3.648660
O    -1.267283  2.045695  3.813390
H    -1.306594  -1.436958  1.992592
H    -2.209376  1.288414  1.543234
C    -3.577405  -0.302724  2.009843
C    -3.803910  -0.764603  0.550305
C    -5.147384  -1.499610  0.464891
C    -3.736129  0.397942  -0.446463
H    -4.401425  0.370905  2.294044
H    -3.638906  -1.186559  2.670826
H    -3.013083  -1.490308  0.287677
H    -5.303144  -1.898713  -0.544347
H    -5.984958  -0.822533  0.685409
H    -5.199331  -2.344045  1.165447
H    -2.739566  0.863109  -0.507007
H    -4.468998  1.180689  -0.200687
H    -3.969408  0.043256  -1.457626
N    -2.781960  0.601140  4.660872
C    -2.729732  1.075658  6.046098
H    -3.438801  -0.151040  4.454536
H    -2.376495  0.264123  6.694212
H    -3.738088  1.370236  6.360311
H    -2.053493  1.929480  6.116270
Pb    0.219918  3.062109  2.483556
