32
Energy: -606845.424767 eV PBE+vdW (tier 2 basis)
C    0.689880  -0.023292  1.820755
C    0.301323  1.304314  2.358926
O    1.205172  2.198869  2.570129
H    1.019525  0.063473  0.774119
H    -0.103520  -0.771583  1.902101
H    1.571257  -0.362894  2.385598
N    -0.974908  1.611672  2.637206
C    -2.105048  1.309424  1.759437
C    -1.926612  2.197020  0.502818
O    -1.048387  3.137648  0.455165
H    -1.108150  2.429735  3.235006
H    -2.043579  0.255867  1.446503
C    -3.454337  1.552405  2.465831
C    -3.837550  0.527254  3.559988
C    -3.881829  -0.905488  3.019067
C    -2.996754  0.630988  4.839234
H    -4.236919  1.539734  1.692775
H    -3.459402  2.576614  2.876988
H    -4.868432  0.811047  3.827116
H    -4.316150  -1.581664  3.765477
H    -2.877457  -1.302533  2.797946
H    -4.496804  -0.990431  2.111694
H    -3.451192  0.028392  5.635289
H    -2.941344  1.663025  5.215630
H    -1.974689  0.248873  4.704774
N    -2.703222  1.980154  -0.537023
C    -2.671637  2.745818  -1.790152
H    -3.388806  1.230508  -0.464463
H    -1.715476  2.594006  -2.305214
H    -2.811377  3.812777  -1.583291
H    -3.484280  2.390046  -2.428203
Pb    0.799650  4.080263  1.386932
