32
Energy: -606845.382756 eV PBE+vdW (tier 2 basis)
C    0.333094  -0.809163  1.471000
C    -0.378380  -0.526131  2.741440
O    0.216989  -0.687011  3.865834
H    1.134052  -0.071370  1.310434
H    -0.328031  -0.843128  0.600637
H    0.839342  -1.780093  1.582603
N    -1.655394  -0.089519  2.760551
C    -2.188689  0.975947  1.918292
C    -1.316842  2.235183  2.127857
O    -0.508198  2.335330  3.122623
H    -2.128854  -0.183992  3.660602
H    -2.091776  0.687358  0.861519
C    -3.696877  1.205760  2.224806
C    -4.188879  1.033906  3.680320
C    -3.476073  1.900087  4.730088
C    -5.698895  1.332742  3.714032
H    -4.261055  0.506499  1.593591
H    -3.965924  2.213215  1.877308
H    -4.081613  -0.028749  3.967378
H    -4.001981  1.861063  5.691673
H    -3.391791  2.953471  4.428998
H    -2.441019  1.541431  4.951755
H    -6.117951  1.109310  4.702212
H    -6.239803  0.723168  2.978844
H    -5.898768  2.390306  3.492464
N    -1.367031  3.229604  1.261993
C    -2.166624  3.365795  0.040244
H    -0.762242  4.020308  1.492671
H    -1.540030  3.823386  -0.732770
H    -3.032867  4.014404  0.223898
H    -2.513183  2.393438  -0.319500
Pb    0.143055  1.280284  5.029698
