32
Energy: -606845.156832 eV PBE+vdW (tier 2 basis)
C    -0.650185  1.387526  1.453617
C    -1.774983  1.638850  2.390469
O    -1.759287  2.733493  3.080725
H    -0.969467  0.866482  0.547987
H    0.130190  0.785014  1.947315
H    -0.197932  2.353125  1.198571
N    -2.829118  0.822232  2.563617
C    -2.815518  -0.636311  2.793579
C    -2.266863  -0.827635  4.224854
O    -1.648480  0.130304  4.835851
H    -3.588902  1.289016  3.062269
H    -3.876899  -0.931892  2.809153
C    -2.116253  -1.523390  1.735037
C    -2.956785  -1.818721  0.466628
C    -4.199148  -2.660206  0.779942
C    -3.316939  -0.580601  -0.361402
H    -1.884741  -2.482347  2.217781
H    -1.140213  -1.100632  1.472238
H    -2.288256  -2.443177  -0.148531
H    -4.708145  -2.945297  -0.148892
H    -4.948240  -2.111100  1.374525
H    -3.946827  -3.591831  1.305054
H    -3.828363  -0.883669  -1.283338
H    -2.431559  -0.009405  -0.672456
H    -4.001980  0.097794  0.168186
N    -2.419335  -1.968748  4.867528
C    -3.130636  -3.185634  4.462617
H    -1.976441  -1.994586  5.787897
H    -3.634050  -3.592228  5.346370
H    -2.423376  -3.934873  4.083921
H    -3.880449  -2.967953  3.698374
Pb    -1.441537  2.347050  5.264673
