32
Energy: -606846.10884 eV PBE+vdW (tier 2 basis)
C    -0.640389  -1.812450  0.390285
C    -0.811895  -0.733281  1.402070
O    0.208027  -0.351405  2.080173
H    0.094208  -1.475360  -0.356163
H    -1.572023  -2.079337  -0.119197
H    -0.215308  -2.703447  0.871596
N    -2.009800  -0.168144  1.560126
C    -2.325862  1.029239  2.365553
C    -2.474622  0.602180  3.839319
O    -1.425090  0.491173  4.575748
H    -2.760417  -0.520550  0.967651
H    -1.439303  1.683850  2.332575
C    -3.497199  1.795483  1.730102
C    -3.581378  3.294166  2.094623
C    -4.704454  3.944893  1.277301
C    -3.758972  3.570795  3.592103
H    -4.462059  1.295395  1.933697
H    -3.363819  1.723385  0.639595
H    -2.626390  3.748495  1.774701
H    -4.567450  3.792494  0.198698
H    -4.732183  5.026208  1.457086
H    -5.688285  3.539954  1.555607
H    -2.922960  3.206483  4.209579
H    -4.691302  3.131762  3.979197
H    -3.822350  4.651520  3.767756
N    -3.662780  0.326955  4.323257
C    -3.967407  -0.101820  5.689816
H    -4.455607  0.504028  3.707848
H    -3.040510  -0.327213  6.220103
H    -4.605473  -0.992122  5.651996
H    -4.504567  0.702253  6.209148
Pb    0.759620  0.374420  4.110050
