32
Energy: -606845.953141 eV PBE+vdW (tier 2 basis)
C    -0.033434  -1.904132  0.217230
C    -0.374940  -1.090703  1.416601
O    0.250443  0.008690  1.620741
H    -0.205553  -1.293733  -0.681262
H    -0.617027  -2.827439  0.142109
H    1.037734  -2.147307  0.233599
N    -1.335447  -1.509690  2.244551
C    -1.882077  -0.742813  3.371984
C    -0.897615  -0.756035  4.559120
O    -0.113664  0.260604  4.701671
H    -1.818010  -2.371471  1.994588
H    -1.898662  0.312940  3.058260
C    -3.336795  -1.134379  3.665132
C    -4.342965  -0.629581  2.604069
C    -5.731817  -1.190535  2.936354
C    -4.374731  0.899210  2.499319
H    -3.609476  -0.715685  4.646906
H    -3.426939  -2.226492  3.758319
H    -4.043957  -1.038092  1.621530
H    -6.459031  -0.896158  2.170319
H    -6.094420  -0.807285  3.900851
H    -5.729699  -2.287746  2.986210
H    -5.132694  1.213952  1.771828
H    -3.424579  1.336995  2.152407
H    -4.634810  1.361044  3.462957
N    -0.805877  -1.725871  5.444977
C    -1.541121  -2.991352  5.558207
H    -0.112317  -1.548093  6.174780
H    -0.927547  -3.677429  6.149585
H    -1.707906  -3.439184  4.574765
H    -2.498397  -2.840838  6.071681
Pb    0.839188  1.543441  3.137722
