32
Energy: -606844.447978 eV PBE+vdW (tier 2 basis)
C    -1.586299  1.452969  -0.274094
C    -1.289985  1.208407  1.161304
O    -0.411954  2.012862  1.755050
H    -0.676464  1.293682  -0.870852
H    -1.892305  2.498856  -0.413888
H    -2.374048  0.795802  -0.652708
N    -1.820499  0.275048  1.887821
C    -2.792931  -0.775884  1.565120
C    -3.298426  -1.119466  2.999876
O    -2.559865  -0.805420  3.950062
H    -1.627635  0.154009  2.928687
H    -3.602158  -0.368913  0.943392
C    -2.058298  -1.940469  0.837424
C    -2.900797  -3.115545  0.280315
C    -3.196459  -4.222997  1.297097
C    -4.146266  -2.661425  -0.487772
H    -1.280549  -2.326295  1.513219
H    -1.534769  -1.473153  -0.011055
H    -2.221819  -3.564302  -0.465452
H    -3.618064  -5.097784  0.785646
H    -3.922142  -3.927019  2.065451
H    -2.283826  -4.551694  1.811350
H    -4.937906  -2.262907  0.168929
H    -4.596617  -3.507052  -1.021845
H    -3.917064  -1.890868  -1.238285
N    -4.493107  -1.699649  3.115896
C    -5.079318  -2.115557  4.387293
H    -5.007075  -1.909390  2.264454
H    -5.160854  -3.210036  4.423700
H    -6.079438  -1.679464  4.494892
H    -4.435653  -1.772311  5.200669
Pb    0.947696  3.318534  2.652346
