32
Energy: -606846.141028 eV PBE+vdW (tier 2 basis)
C    -3.766729  -0.631547  -1.682574
C    -2.838060  -0.815495  -0.533183
O    -1.576729  -0.685180  -0.728194
H    -4.818017  -0.783736  -1.417268
H    -3.488254  -1.317375  -2.493955
H    -3.638287  0.388966  -2.073126
N    -3.335675  -1.082461  0.675249
C    -2.596899  -1.104307  1.952109
C    -1.887387  -2.463021  2.105139
O    -0.756287  -2.658927  1.524590
H    -4.350133  -1.154728  0.743063
H    -1.792489  -0.356537  1.874532
C    -3.529547  -0.686806  3.096699
C    -2.857524  -0.483178  4.473716
C    -1.700370  0.522059  4.413024
C    -3.924398  -0.043767  5.484943
H    -4.370872  -1.398947  3.184737
H    -3.989204  0.267249  2.791104
H    -2.449474  -1.449657  4.818845
H    -0.851029  0.170311  3.806084
H    -1.302733  0.703495  5.418742
H    -2.031528  1.492545  4.014756
H    -4.754095  -0.761205  5.546174
H    -4.344531  0.936296  5.218126
H    -3.489928  0.044971  6.487670
N    -2.446577  -3.412066  2.819867
C    -1.917474  -4.759152  3.047042
H    -3.319114  -3.173993  3.290169
H    -0.949550  -4.860818  2.553066
H    -2.622415  -5.498365  2.647228
H    -1.804143  -4.920994  4.125726
Pb    0.366450  -1.527630  -0.048098
