32
Energy: -606845.959617 eV PBE+vdW (tier 2 basis)
C    -0.046706  2.107617  0.552370
C    -0.617293  1.760791  1.882907
O    -0.857967  2.699357  2.720691
H    -0.743518  2.785182  0.037495
H    0.136518  1.232567  -0.079641
H    0.890495  2.663748  0.690855
N    -0.886646  0.484100  2.172142
C    -1.590368  0.016785  3.374362
C    -0.645438  0.075612  4.595486
O    -0.742842  1.094810  5.381819
H    -0.707922  -0.204129  1.442383
H    -2.362006  0.767401  3.603319
C    -2.321855  -1.306732  3.109059
C    -3.084785  -1.878700  4.322516
C    -4.125531  -0.896519  4.877167
C    -3.735567  -3.208410  3.921587
H    -1.625574  -2.061228  2.716180
H    -3.041681  -1.101169  2.299945
H    -2.355538  -2.092133  5.125388
H    -4.693358  -1.362996  5.691125
H    -4.849328  -0.602124  4.103015
H    -3.678352  0.017572  5.299341
H    -4.494165  -3.058785  3.140335
H    -4.234599  -3.669020  4.782411
H    -2.997987  -3.928221  3.541224
N    0.260304  -0.835323  4.884000
C    0.604624  -2.088187  4.201700
H    0.787543  -0.632050  5.735907
H    -0.092275  -2.888024  4.481181
H    1.611877  -2.371711  4.520497
H    0.612300  -1.956788  3.116065
Pb    -1.203219  3.222176  4.868986
