32
Energy: -606844.468825 eV PBE+vdW (tier 2 basis)
C    -0.016519  -0.445249  -0.025736
C    -0.128102  0.044530  1.372518
O    0.999394  0.166307  2.072291
H    0.724393  0.155754  -0.569963
H    -0.971689  -0.404724  -0.556513
H    0.340499  -1.485641  -0.023409
N    -1.230592  0.364386  1.971786
C    -2.627468  0.345375  1.518924
C    -3.262781  1.302957  2.575368
O    -2.605486  1.520777  3.610185
H    -1.280990  0.776800  2.958665
H    -2.706619  0.773339  0.508879
C    -3.176790  -1.105012  1.540608
C    -4.656707  -1.272562  1.103636
C    -4.799480  -2.533529  0.238993
C    -5.610047  -1.328035  2.304248
H    -3.031662  -1.519396  2.549696
H    -2.533799  -1.688961  0.865174
H    -4.931923  -0.414261  0.461874
H    -4.187465  -2.477315  -0.671576
H    -5.843092  -2.672925  -0.069896
H    -4.500561  -3.430725  0.799731
H    -6.654800  -1.348394  1.969447
H    -5.498317  -0.477436  2.989157
H    -5.435533  -2.242851  2.887974
N    -4.450149  1.839751  2.296251
C    -5.182596  2.717033  3.206461
H    -4.908041  1.567060  1.430849
H    -5.541101  3.595540  2.658297
H    -4.513401  3.028760  4.012019
H    -6.043815  2.186068  3.634171
Pb    2.784370  0.390787  3.126408
