32
Energy: -606846.055975 eV PBE+vdW (tier 2 basis)
C    -0.400840  -0.667176  -0.056652
C    -0.310785  -0.436734  1.413549
O    0.699049  -0.891024  2.051127
H    -0.389554  -1.751912  -0.238991
H    0.492268  -0.256251  -0.546361
H    -1.298728  -0.237376  -0.512391
N    -1.307612  0.210937  2.024438
C    -1.534350  0.414375  3.476182
C    -0.653021  1.563988  3.978851
O    0.624085  1.512738  3.975696
H    -2.059401  0.528332  1.417046
H    -2.566644  0.781722  3.514951
C    -1.513922  -0.930220  4.286649
C    -0.537045  -1.197078  5.448164
C    -0.671777  -0.249063  6.639296
C    -0.653672  -2.664079  5.875394
H    -1.420149  -1.741995  3.554646
H    -2.519437  -1.045398  4.716374
H    0.534156  -1.105768  5.067448
H    -0.498850  0.806261  6.395208
H    0.027784  -0.521522  7.438673
H    -1.686074  -0.331298  7.056308
H    0.058576  -2.901532  6.674450
H    -0.485739  -3.356092  5.040456
H    -1.662033  -2.855356  6.270586
N    -1.253742  2.658804  4.408470
C    -0.548271  3.834530  4.931386
H    -2.269919  2.690100  4.388742
H    0.103288  4.259534  4.158887
H    0.059350  3.554616  5.800579
H    -1.292213  4.576731  5.230717
Pb    2.071224  -0.192793  3.673126
