32
Energy: -606844.264549 eV PBE+vdW (tier 2 basis)
C    0.584301  0.522841  0.857092
C    -0.236493  -0.435965  1.640902
O    0.148129  -1.708658  1.661509
H    1.608153  0.542077  1.257373
H    0.174117  1.536264  0.879133
H    0.646140  0.187383  -0.187665
N    -1.300480  -0.129274  2.317143
C    -2.012588  1.149022  2.477322
C    -2.795459  0.845410  3.792744
O    -3.118317  -0.344282  3.963872
H    -1.865282  -0.837075  2.861468
H    -1.295111  1.972212  2.569745
C    -2.945316  1.324641  1.235847
C    -3.628905  2.686028  0.985740
C    -4.812837  2.987137  1.908294
C    -2.636580  3.848001  0.878514
H    -3.702759  0.527786  1.279758
H    -2.312672  1.110165  0.360046
H    -4.055163  2.543796  -0.023600
H    -5.380694  3.842672  1.520937
H    -4.506027  3.251501  2.926610
H    -5.504392  2.136654  1.972304
H    -3.141607  4.750628  0.512772
H    -1.819891  3.628609  0.175192
H    -2.189134  4.118778  1.846575
N    -3.079524  1.804000  4.680170
C    -2.622677  3.186201  4.761092
H    -3.612964  1.455250  5.477264
H    -1.940203  3.306491  5.612858
H    -3.479728  3.855916  4.902319
H    -2.105452  3.482995  3.846346
Pb    0.802703  -3.692931  1.643410
