32
Energy: -606844.738187 eV PBE+vdW (tier 2 basis)
C    0.911960  2.739073  2.295112
C    0.356432  1.382736  2.542976
O    1.190277  0.374740  2.640985
H    1.649467  2.996796  3.067407
H    0.133627  3.507576  2.255000
H    1.451183  2.724888  1.335612
N    -0.933587  1.192984  2.636135
C    -1.698582  -0.054453  2.693116
C    -3.173382  0.479674  2.528554
O    -3.347257  1.696244  2.649919
H    -1.622431  1.984727  2.587839
H    -1.430366  -0.676207  1.824829
C    -1.558347  -0.881105  3.983970
C    -1.657139  -0.139414  5.336522
C    -2.449518  -0.958605  6.362372
C    -0.275392  0.219877  5.896696
H    -0.596981  -1.471761  3.943998
H    -2.306991  -1.685201  3.936062
H    -2.193375  0.808926  5.163321
H    -2.522234  -0.429769  7.320723
H    -1.979727  -1.935109  6.553141
H    -3.472661  -1.139641  6.009920
H    -0.319255  0.790969  6.836049
H    0.316200  0.866836  5.215880
H    0.266528  -0.710637  6.191311
N    -4.129850  -0.422454  2.294465
C    -5.537995  -0.057755  2.105499
H    -3.865710  -1.383597  2.099620
H    -6.170751  -0.843139  2.530960
H    -5.767765  0.056481  1.038357
H    -5.729072  0.890377  2.615369
Pb    1.813076  -1.049475  4.124838
