32
Energy: -606845.901717 eV PBE+vdW (tier 2 basis)
C    0.137834  0.834464  0.270461
C    -0.008607  0.590764  1.731745
O    0.881785  1.046308  2.531838
H    0.151820  1.920058  0.094582
H    -0.663949  0.384425  -0.323997
H    1.108197  0.446787  -0.068448
N    -1.072368  -0.079169  2.185982
C    -1.406232  -0.253926  3.606734
C    -0.452686  -1.291816  4.234591
O    0.515897  -0.850265  4.967100
H    -1.766523  -0.370154  1.499407
H    -1.141220  0.689231  4.109151
C    -2.922172  -0.432992  3.806849
C    -3.428094  -0.253281  5.258868
C    -3.042612  -1.402657  6.197820
C    -3.052159  1.111326  5.849485
H    -3.264255  -1.397182  3.408771
H    -3.389721  0.346736  3.184220
H    -4.524642  -0.271211  5.157345
H    -3.564101  -1.297668  7.157175
H    -1.967497  -1.414696  6.434966
H    -3.323745  -2.383327  5.790147
H    -1.979134  1.178818  6.097220
H    -3.588610  1.278688  6.791287
H    -3.309894  1.942412  5.177993
N    -0.538789  -2.592235  4.050248
C    -1.506486  -3.388852  3.290325
H    0.176689  -3.124266  4.550453
H    -2.356125  -3.670405  3.924594
H    -0.999055  -4.299129  2.955472
H    -1.860973  -2.848271  2.409549
Pb    1.772960  0.957767  4.586479
