32
Energy: -606846.028132 eV PBE+vdW (tier 2 basis)
C    0.942346  0.230556  0.613396
C    0.488557  0.215862  2.035962
O    1.325629  0.543301  2.937935
H    0.159313  -0.044271  -0.100630
H    1.788883  -0.462702  0.506721
H    1.322287  1.232132  0.369612
N    -0.772152  -0.151803  2.289473
C    -1.531641  -0.297279  3.555178
C    -1.553525  0.984347  4.403748
O    -0.577320  1.369674  5.133001
H    -1.309269  -0.390824  1.459529
H    -2.563020  -0.415107  3.196616
C    -1.290141  -1.580617  4.396015
C    0.094116  -2.044665  4.900571
C    -0.083611  -2.949709  6.124812
C    0.962247  -2.716784  3.836437
H    -1.698801  -2.417709  3.808086
H    -1.967050  -1.478881  5.258768
H    0.659184  -1.144970  5.307098
H    0.882036  -3.313131  6.496326
H    -0.677041  -3.832751  5.844721
H    -0.606699  -2.442304  6.945179
H    0.466551  -3.636730  3.495316
H    1.933509  -3.014693  4.250761
H    1.148279  -2.099280  2.951599
N    -2.678477  1.676446  4.426120
C    -2.889363  2.883403  5.234772
H    -3.458077  1.349582  3.861067
H    -2.192537  3.672020  4.927296
H    -2.733861  2.657344  6.296224
H    -3.915985  3.224137  5.080264
Pb    1.617642  0.895313  5.122846
