32
Energy: -606844.595477 eV PBE+vdW (tier 2 basis)
C    0.035714  1.132110  0.835446
C    -0.414479  0.209399  1.911894
O    0.309257  0.119964  3.008386
H    0.091323  2.158365  1.225195
H    -0.637435  1.113633  -0.027329
H    1.046939  0.849174  0.510560
N    -1.491759  -0.505306  1.774954
C    -2.125906  -1.486297  2.657355
C    -3.085197  -2.192136  1.632285
O    -3.245338  -1.624371  0.541534
H    -2.066613  -0.523402  0.875671
H    -1.370153  -2.192724  3.031752
C    -2.923243  -0.811773  3.819055
C    -2.672519  -1.315735  5.252754
C    -1.258011  -1.002386  5.788613
C    -3.720018  -0.733456  6.209982
H    -3.995764  -0.924912  3.609843
H    -2.744496  0.273968  3.779365
H    -2.758136  -2.413785  5.270434
H    -1.121660  -1.320454  6.830156
H    -1.120374  0.105488  5.762853
H    -0.504069  -1.549527  5.177781
H    -3.690287  0.365599  6.223949
H    -3.572734  -1.092014  7.236168
H    -4.729445  -1.032538  5.899453
N    -3.703234  -3.331426  1.958995
C    -3.605386  -4.122522  3.179318
H    -4.336742  -3.667998  1.235029
H    -4.330542  -3.796027  3.937653
H    -2.591508  -4.083630  3.594620
H    -3.815320  -5.168260  2.933181
Pb    1.255899  0.201793  4.885834
