32
Energy: -606846.114163 eV PBE+vdW (tier 2 basis)
C    0.332694  -1.069095  0.703896
C    -0.528930  -0.198850  1.555500
O    -0.138649  0.067975  2.740602
H    -0.069023  -1.233612  -0.301212
H    0.455218  -2.039231  1.206752
H    1.333752  -0.622887  0.629742
N    -1.681416  0.253600  1.040860
C    -2.768433  1.026279  1.691272
C    -2.310826  2.477839  1.897348
O    -1.459873  2.791678  2.799186
H    -1.865924  -0.037033  0.083685
H    -3.573770  1.046978  0.945581
C    -3.335853  0.290443  2.928158
C    -4.477259  0.947887  3.735489
C    -3.988958  1.996049  4.741800
C    -5.614319  1.485440  2.853956
H    -2.526161  0.011928  3.631967
H    -3.677320  -0.681318  2.540885
H    -4.893213  0.116889  4.326151
H    -4.789225  2.280240  5.437318
H    -3.631837  2.924210  4.275410
H    -3.189152  1.580286  5.393172
H    -5.327521  2.392811  2.301714
H    -6.476712  1.758546  3.473538
H    -5.961543  0.731620  2.134437
N    -2.813557  3.402791  1.102646
C    -2.492905  4.832192  1.137564
H    -3.485770  3.102734  0.399316
H    -1.954179  5.109417  0.222802
H    -1.871776  5.045223  2.009749
H    -3.425427  5.405760  1.191597
Pb    -0.516465  1.537190  4.397506
