32
Energy: -606844.630066 eV PBE+vdW (tier 2 basis)
C    -1.446123  0.519213  -0.036091
C    -1.003350  0.613097  1.379765
O    0.222080  1.014296  1.626879
H    -1.310306  1.483784  -0.544085
H    -2.488199  0.196801  -0.126269
H    -0.800784  -0.205232  -0.555979
N    -1.804473  0.280708  2.356734
C    -1.526890  0.133545  3.788139
C    -2.862870  -0.526744  4.293673
O    -3.832046  -0.466332  3.527335
H    -2.802701  -0.005389  2.196518
H    -0.683680  -0.561258  3.915790
C    -1.244499  1.438505  4.556468
C    -2.176038  2.646366  4.303847
C    -2.489847  3.387341  5.609185
C    -1.591693  3.617326  3.270569
H    -0.172289  1.743306  4.383258
H    -1.228078  1.188661  5.626219
H    -3.123386  2.262682  3.889133
H    -1.576824  3.768149  6.090859
H    -2.995971  2.723478  6.321338
H    -3.154817  4.241328  5.430374
H    -2.255174  4.464329  3.040417
H    -1.410637  3.143659  2.282423
H    -0.682929  4.112833  3.688702
N    -2.902534  -1.095335  5.503439
C    -1.823863  -1.342667  6.457141
H    -3.822107  -1.466102  5.742306
H    -1.969889  -2.331781  6.904549
H    -1.819748  -0.597056  7.264150
H    -0.847899  -1.350311  5.960275
Pb    1.184207  2.693673  2.558495
