27
Energy: -172205.308495 eV PBE+vdW (tier 2 basis)
C    -1.592209  1.541914  0.042910
C    -1.068857  1.183410  1.391581
O    0.101115  1.585255  1.752318
H    -0.900892  1.132508  -0.709811
H    -1.584026  2.632182  -0.089367
H    -2.599069  1.158550  -0.152992
N    -1.806532  0.403817  2.186311
C    -1.401313  -0.255246  3.450909
C    -2.599094  -1.135070  3.905491
O    -3.408446  -0.675518  4.725629
H    -2.710164  0.118749  1.810070
H    -0.523131  -0.878874  3.226628
C    -0.980906  0.679155  4.614952
C    -1.734569  1.987365  4.805114
O    -1.165989  3.130923  4.594191
N    -2.966915  1.940024  5.237299
H    0.091109  0.909611  4.534062
H    -1.078493  0.095785  5.542182
H    -3.396412  0.993276  5.312320
H    -3.499533  2.792520  5.407982
N    -2.727696  -2.353577  3.361051
C    -1.795500  -3.090602  2.503692
H    -3.536781  -2.867759  3.711794
H    -0.993331  -3.557966  3.090660
H    -1.361232  -2.445708  1.731368
H    -2.353865  -3.881456  1.993566
Cd    0.392542  3.104688  3.178585
