27
Energy: -172205.567187 eV PBE+vdW (tier 2 basis)
C    -0.383657  0.814680  -0.551218
C    -0.074135  0.786621  0.905559
O    1.081719  1.218971  1.265083
H    -0.311152  1.847856  -0.918549
H    -1.375253  0.410974  -0.783143
H    0.380717  0.234385  -1.087991
N    -0.989783  0.305127  1.756601
C    -0.837517  0.114281  3.199828
C    -1.793886  -1.005351  3.769643
O    -2.532813  -0.698108  4.700516
H    -1.880506  0.029032  1.346052
H    0.189377  -0.259481  3.379288
C    -1.127292  1.417377  4.000774
C    -0.269127  1.540114  5.240913
O    0.980682  1.859293  5.151428
N    -0.794922  1.313736  6.420070
H    -2.193357  1.414851  4.260111
H    -0.946080  2.313032  3.383052
H    -1.760445  0.994233  6.498629
H    -0.234228  1.395056  7.268638
N    -1.725606  -2.232740  3.225547
C    -0.814153  -2.761507  2.212177
H    -2.385806  -2.889917  3.640545
H    0.171468  -2.284154  2.270411
H    -1.216114  -2.652162  1.195597
H    -0.667754  -3.829131  2.405162
Cd    1.678621  1.810933  3.177280
