27
Energy: -172205.699091 eV PBE+vdW (tier 2 basis)
C    -0.821039  0.426882  -0.619669
C    -0.413757  0.429359  0.813345
O    0.820467  0.677202  1.068134
H    -0.615593  1.414135  -1.056833
H    -1.877428  0.174472  -0.762053
H    -0.196800  -0.295467  -1.165237
N    -1.333733  0.160632  1.752020
C    -1.122276  0.034531  3.195814
C    -2.196630  -0.880990  3.900456
O    -2.642619  -0.499992  4.978271
H    -2.290007  0.042219  1.418777
H    -0.162933  -0.498551  3.342945
C    -1.127887  1.406054  3.935627
C    -0.153890  1.444766  5.095186
O    1.116934  1.569486  4.889020
N    -0.601033  1.348644  6.322506
H    -2.149543  1.604792  4.279511
H    -0.853644  2.226348  3.251109
H    -1.588381  1.151873  6.489164
H    0.037966  1.375727  7.117325
N    -2.526193  -2.017693  3.269575
C    -3.479846  -2.981270  3.834460
H    -2.013832  -2.297766  2.438822
H    -2.963813  -3.708174  4.474581
H    -3.980285  -3.506306  3.015448
H    -4.219390  -2.440685  4.431771
Cd    1.648187  1.278769  2.887924
