27
Energy: -172205.793965 eV PBE+vdW (tier 2 basis)
C    -0.310576  0.895400  0.111869
C    -0.266923  0.468513  1.539652
O    0.855921  0.365035  2.118522
H    0.274462  0.187686  -0.491288
H    0.181465  1.873541  0.018870
H    -1.329387  0.961210  -0.284767
N    -1.448366  0.207050  2.172417
C    -1.399919  -0.143388  3.576624
C    -1.176693  -1.650883  3.834070
O    -0.010368  -2.045307  4.165681
H    -2.313290  0.281255  1.643651
H    -0.444988  0.312379  3.810398
C    -2.207933  0.610152  4.635059
C    -1.229852  0.938235  5.802744
O    0.024754  0.788467  5.723382
N    -1.770636  1.426829  6.908554
H    -3.079756  0.067743  5.022524
H    -2.569475  1.566680  4.227330
H    -2.768781  1.592148  6.997906
H    -1.174290  1.692799  7.690045
N    -2.181700  -2.495891  3.694597
C    -2.095629  -3.951547  3.869597
H    -3.091333  -2.115006  3.443424
H    -2.493630  -4.444635  2.975512
H    -2.687047  -4.252888  4.742654
H    -1.051074  -4.234004  4.016747
Cd    1.380361  -0.345797  4.212984
