27
Energy: -172205.096027 eV PBE+vdW (tier 2 basis)
C    -0.263444  -0.495894  -0.304193
C    0.100904  -0.153698  1.117356
O    1.183656  0.281815  1.453437
H    0.539635  -0.139412  -0.955447
H    -1.208714  -0.029900  -0.615757
H    -0.343876  -1.585432  -0.437942
N    -0.877952  -0.324289  2.124444
C    -2.109989  -1.060110  2.023749
C    -3.359693  -0.139132  1.944556
O    -4.541546  -0.612471  1.773867
H    -0.496692  -0.147867  3.054330
H    -2.104370  -1.588810  1.054575
C    -2.257842  -2.110379  3.185808
C    -2.358269  -3.547777  2.715687
O    -3.322502  -3.961527  1.982083
N    -1.426956  -4.412105  3.072363
H    -3.156735  -1.909092  3.790464
H    -1.410337  -1.994891  3.870800
H    -0.635809  -4.151379  3.654242
H    -1.501968  -5.388521  2.786127
N    -3.161512  1.152112  2.037652
C    -4.178538  2.203853  1.962611
H    -2.182185  1.423936  2.163885
H    -4.250366  2.708579  2.933986
H    -5.143989  1.766139  1.700627
H    -3.878159  2.934446  1.202717
Cd    -4.957467  -2.681077  1.455433
