27
Energy: -172205.550508 eV PBE+vdW (tier 2 basis)
C    0.410463  0.422988  0.053976
C    -0.460397  0.267510  1.261440
O    -0.555568  -0.791271  1.898061
H    0.140051  -0.354257  -0.673387
H    1.451825  0.228482  0.344469
H    0.344389  1.406207  -0.423593
N    -1.172871  1.375145  1.670183
C    -2.191532  1.374691  2.708890
C    -1.723379  1.075035  4.154933
O    -2.263200  1.724792  5.148485
H    -1.018758  2.252236  1.182531
H    -2.516101  2.425918  2.750752
C    -3.441141  0.474746  2.355743
C    -4.727034  1.245234  2.143024
O    -5.196523  2.075642  3.006409
N    -5.422530  1.049998  1.040372
H    -3.642788  -0.247338  3.164617
H    -3.196279  -0.136751  1.480962
H    -5.115222  0.408908  0.314291
H    -6.316316  1.523978  0.907964
N    -0.815800  0.165413  4.366165
C    -0.276035  -0.232736  5.665507
H    -0.524526  -0.347725  3.491854
H    0.740112  0.168949  5.773453
H    -0.223846  -1.326713  5.696759
H    -0.904587  0.144276  6.475685
Cd    -4.207407  2.431644  4.845455
