27
Energy: -172205.574318 eV PBE+vdW (tier 2 basis)
C    -0.595063  1.522305  -0.571320
C    -0.164358  1.240991  0.827154
O    1.051241  1.579931  1.123884
H    -0.476203  2.593882  -0.781883
H    -1.630561  1.218384  -0.756809
H    0.072390  0.985865  -1.261245
N    -1.021553  0.670455  1.662739
C    -0.849568  0.127005  3.005469
C    -1.960701  -0.999563  3.054003
O    -2.915622  -0.857564  2.297334
H    -1.961400  0.388688  1.316202
H    0.143490  -0.344042  3.113628
C    -1.141152  1.173649  4.144551
C    -0.114300  1.272706  5.254902
O    1.144218  1.420287  5.031964
N    -0.517342  1.249675  6.509515
H    -2.136443  0.984089  4.566007
H    -1.209945  2.180439  3.698401
H    -1.496805  1.143064  6.760529
H    0.154003  1.389601  7.265433
N    -1.817802  -1.990996  3.946478
C    -0.636208  -2.339304  4.734189
H    -2.586473  -2.660468  3.933451
H    0.220976  -2.601456  4.098404
H    -0.878995  -3.220220  5.335487
H    -0.354262  -1.543250  5.436068
Cd    1.773438  1.608847  3.049462
