27
Energy: -172205.421422 eV PBE+vdW (tier 2 basis)
C    -2.018498  -1.959880  -1.286849
C    -1.732605  -2.073234  0.173060
O    -1.898484  -3.222807  0.719134
H    -1.858165  -0.952206  -1.684511
H    -3.068395  -2.245635  -1.453774
H    -1.406572  -2.684505  -1.840241
N    -1.345824  -0.973675  0.835905
C    -1.329500  -0.642543  2.277916
C    -0.061484  -1.078138  3.043364
O    0.546948  -2.203974  2.862678
H    -1.209004  -0.161791  0.237239
H    -1.296170  0.455438  2.284422
C    -2.628532  -0.997329  3.043706
C    -2.921941  0.131747  4.063821
O    -2.076765  1.010875  4.277216
N    -4.108262  0.086909  4.680792
H    -2.563394  -1.948916  3.594456
H    -3.463693  -1.093004  2.336310
H    -4.825759  -0.592580  4.455106
H    -4.337496  0.812077  5.356400
N    0.379925  -0.219666  3.929822
C    1.511629  -0.410077  4.834131
H    -0.223240  0.613084  4.057580
H    1.208125  -0.104420  5.841881
H    2.344595  0.228072  4.510287
H    1.830374  -1.454832  4.828070
Cd    -0.536809  -3.876990  2.193077
