27
Energy: -172205.538554 eV PBE+vdW (tier 2 basis)
C    0.191327  0.255935  0.093228
C    -0.003562  0.193519  1.575169
O    0.788668  0.651116  2.397942
H    1.043645  -0.388472  -0.167755
H    0.467842  1.277471  -0.194289
H    -0.681840  -0.071621  -0.481697
N    -1.156379  -0.458008  2.033803
C    -1.368875  -0.476512  3.467474
C    -2.342278  -1.591149  3.882232
O    -2.993127  -1.598058  4.994615
H    -1.967312  -0.447628  1.416764
H    -0.393926  -0.778421  3.893362
C    -1.698368  0.943441  4.052140
C    -0.831951  1.329736  5.237518
O    -1.246207  1.208864  6.456898
N    0.373659  1.785967  5.002614
H    -2.760313  1.055427  4.324184
H    -1.530486  1.671450  3.250637
H    0.737995  1.763183  4.040249
H    0.994732  2.036783  5.771847
N    -2.471039  -2.623066  3.077554
C    -3.281632  -3.814936  3.358689
H    -1.913266  -2.599229  2.223377
H    -2.840801  -4.387440  4.184300
H    -3.302290  -4.432906  2.457772
H    -4.302246  -3.520249  3.625386
Cd    -2.748970  -0.253196  6.599985
