27
Energy: -172205.685704 eV PBE+vdW (tier 2 basis)
C    0.141537  3.346759  0.792041
C    0.234925  2.539982  2.041265
O    1.235611  2.814163  2.818518
H    0.106509  4.414376  1.048054
H    -0.732288  3.079032  0.188879
H    1.055458  3.190097  0.200841
N    -0.679198  1.609013  2.277698
C    -0.766110  0.583001  3.307812
C    -1.640333  -0.533936  2.606238
O    -2.362080  -0.171631  1.683289
H    -1.421298  1.424901  1.571349
H    0.234033  0.163149  3.523083
C    -1.497995  1.069243  4.613625
C    -0.826172  0.679222  5.913724
O    0.395712  0.987741  6.176147
N    -1.508278  0.022452  6.829592
H    -2.538962  0.722944  4.595984
H    -1.561987  2.170747  4.612953
H    -2.481472  -0.238014  6.692802
H    -1.081177  -0.191783  7.731632
N    -1.567748  -1.766085  3.126303
C    -2.350830  -2.890996  2.595201
H    -0.829662  -1.981756  3.789236
H    -2.596286  -3.574131  3.414202
H    -1.781440  -3.429902  1.827514
H    -3.270869  -2.502155  2.150336
Cd    1.444395  2.073568  4.727683
