27
Energy: -172205.203762 eV PBE+vdW (tier 2 basis)
C    0.700089  2.454443  0.902528
C    0.190241  1.672239  2.065292
O    -0.095637  2.230891  3.177870
H    0.014889  3.290808  0.706528
H    0.817497  1.858945  -0.009002
H    1.676185  2.894766  1.155107
N    -0.010285  0.356133  1.930969
C    -0.441339  -0.629619  2.936347
C    -1.980727  -0.836884  3.066342
O    -2.384367  -1.508328  4.025803
H    0.204149  -0.028332  1.012033
H    -0.109283  -1.585491  2.502867
C    0.309294  -0.561048  4.307130
C    -0.245636  0.164545  5.531467
O    0.366646  1.154594  6.097249
N    -1.293445  -0.340573  6.132720
H    1.329273  -0.197994  4.128806
H    0.432622  -1.605226  4.630692
H    -1.807001  -1.103677  5.653134
H    -1.657441  0.085174  6.984832
N    -2.771449  -0.365287  2.098022
C    -4.213197  -0.626963  2.045777
H    -2.352195  0.110921  1.306451
H    -4.720499  0.250535  1.632681
H    -4.575848  -0.825792  3.057874
H    -4.423263  -1.500219  1.414722
Cd    0.949732  2.803437  4.934758
