27
Energy: -172205.573831 eV PBE+vdW (tier 2 basis)
C    -0.255862  1.561285  -0.473878
C    0.090162  1.099588  0.900177
O    1.337707  1.212757  1.235481
H    0.049179  2.609465  -0.595480
H    -1.324047  1.456057  -0.690449
H    0.324105  0.973693  -1.200335
N    -0.868161  0.610817  1.674681
C    -0.821437  -0.070355  2.962882
C    -2.107560  -0.993650  2.894394
O    -2.963787  -0.678931  2.072589
H    -1.828663  0.486890  1.285709
H    0.071810  -0.716879  3.029054
C    -0.942699  0.900310  4.193867
C    0.064534  0.705581  5.310215
O    1.331546  0.628302  5.101265
N    -0.356655  0.652239  6.557568
H    -1.963192  0.855493  4.595027
H    -0.820413  1.940262  3.845943
H    -1.342151  0.716908  6.798308
H    0.316342  0.596782  7.322818
N    -2.207456  -2.023607  3.746788
C    -1.242736  -2.533581  4.714627
H    -3.087859  -2.531679  3.660028
H    -1.458481  -2.179581  5.732090
H    -0.217720  -2.256293  4.441958
H    -1.286929  -3.628199  4.718261
Cd    2.023423  0.908326  3.149412
