27
Energy: -172205.869944 eV PBE+vdW (tier 2 basis)
C    0.895518  -0.168711  0.623972
C    0.422812  0.738199  1.694319
O    1.131892  1.703854  2.104150
H    0.098250  -0.796796  0.212599
H    1.634221  -0.849238  1.085411
H    1.421029  0.386325  -0.160679
N    -0.797662  0.535169  2.308238
C    -2.107232  0.479082  1.643852
C    -2.167849  1.483878  0.463863
O    -1.568370  2.601947  0.511992
H    -0.821111  0.900729  3.260146
H    -2.299825  -0.534388  1.259942
C    -3.207113  0.774705  2.693275
C    -3.206649  2.124257  3.427222
O    -2.208363  2.899610  3.551525
N    -4.337138  2.441535  4.041910
H    -3.144624  -0.005268  3.471431
H    -4.186327  0.636806  2.215554
H    -5.156611  1.840818  4.031061
H    -4.380264  3.287978  4.607810
N    -2.888825  1.128735  -0.587685
C    -3.122513  1.960621  -1.773521
H    -3.293076  0.194401  -0.594112
H    -4.194999  1.973170  -1.997239
H    -2.581502  1.541883  -2.631120
H    -2.770000  2.975410  -1.577349
Cd    -0.453670  3.250291  2.304432
