18
Energy: -165035.324562 eV PBE+vdW (tier 2 basis)
N    0.278607  0.033189  0.246331
C    0.040141  -0.194443  1.741874
C    1.343156  -0.102504  2.534764
O    1.255736  -0.133834  3.802798
H    -0.100855  0.945343  -0.037363
H    -0.625023  0.601352  2.102704
C    -0.646844  -1.572944  1.831726
C    -1.413812  -1.656676  0.506134
C    -0.427261  -1.105288  -0.514817
H    -1.286682  -1.624792  2.719265
H    0.100353  -2.376433  1.902551
H    -2.330686  -1.051673  0.539865
H    -1.703535  -2.685195  0.262212
H    -0.870431  -0.692115  -1.426168
H    0.348957  -1.830646  -0.784270
O    2.453480  -0.018886  1.919115
H    1.289706  0.054479  0.045069
Cd    3.454995  0.007064  3.958209
