18
Energy: -165034.923152 eV PBE+vdW (tier 2 basis)
N    0.315855  0.162863  0.106937
C    0.198761  0.064130  1.603382
C    1.512402  0.271597  2.351704
O    2.656541  0.189487  1.848783
H    0.034625  1.092983  -0.226376
H    -0.484865  0.850534  1.957832
C    -0.380371  -1.368376  1.878548
C    -0.367753  -2.063974  0.506704
C    -0.571389  -0.922450  -0.469014
H    -1.401550  -1.254525  2.260616
H    0.191371  -1.911231  2.639048
H    -1.154542  -2.822692  0.423613
H    0.588219  -2.581978  0.316790
H    -1.606388  -0.543824  -0.441794
H    -0.307805  -1.124034  -1.512429
O    1.320783  0.501624  3.615348
H    2.161702  0.588218  4.122082
Cd    2.536404  -0.058353  -0.323776
