18
Energy: -165034.697095 eV PBE+vdW (tier 2 basis)
N    0.341516  -0.101484  -0.108645
C    0.221345  0.037178  1.394803
C    1.559950  0.259304  2.110169
O    2.667133  0.337046  1.532326
H    -0.221595  0.634295  -0.549133
H    -0.389313  0.932782  1.594744
C    -0.500989  -1.257305  1.872120
C    -1.240093  -1.740882  0.617377
C    -0.242813  -1.458878  -0.497994
H    -1.181630  -1.042146  2.704911
H    0.227638  -2.006975  2.213186
H    -2.173524  -1.181328  0.463316
H    -1.494516  -2.806458  0.670653
H    -0.668827  -1.381327  -1.504376
H    0.563360  -2.203868  -0.506299
O    1.572876  0.369180  3.404731
H    0.696663  0.295419  3.837892
Cd    2.507823  0.265447  -0.628781
