18
Energy: -165035.297022 eV PBE+vdW (tier 2 basis)
N    -0.244700  0.229211  -0.039789
C    0.133507  0.010521  1.426661
C    1.641918  -0.238057  1.549990
O    2.135972  -0.263272  2.720898
H    -0.511017  1.205549  -0.221826
H    -0.087570  0.922206  1.995246
C    -0.727215  -1.195831  1.885075
C    -1.142208  -1.894770  0.583836
C    -1.385612  -0.741022  -0.375007
H    -1.603052  -0.803363  2.419539
H    -0.188068  -1.843863  2.583690
H    -2.045960  -2.500973  0.713975
H    -0.352323  -2.561214  0.208150
H    -2.324184  -0.212739  -0.168822
H    -1.331189  -0.983971  -1.441279
O    2.341385  -0.414880  0.501635
H    0.581043  0.026787  -0.626077
Cd    4.139274  -0.647320  1.876105
