18
Energy: -165034.680723 eV PBE+vdW (tier 2 basis)
N    0.380757  -0.231372  -0.143743
C    0.206358  0.075228  1.320701
C    1.521093  0.236925  2.096594
O    2.640030  -0.125938  1.672805
H    0.230639  0.609264  -0.714090
H    -0.332442  1.032459  1.403856
C    -0.632948  -1.119858  1.894586
C    -0.641454  -2.163297  0.765467
C    -0.623617  -1.315150  -0.490454
H    -1.647762  -0.761085  2.105455
H    -0.218332  -1.513193  2.830081
H    -1.524554  -2.810842  0.813021
H    0.239121  -2.825397  0.813947
H    -1.593237  -0.820656  -0.661572
H    -0.333194  -1.828550  -1.412868
O    1.486248  0.735046  3.296244
H    0.599837  1.018801  3.604907
Cd    2.572457  -0.808387  -0.383937
