26
Energy: -32074.5518324 eV PBE+vdW (tier 2 basis)
N    1.932098  -0.110672  0.729532
C    0.657080  -0.168968  1.420160
C    0.307156  1.290403  1.709115
O    -0.264430  2.045523  0.850082
H    2.729654  0.248841  1.250632
H    1.926915  0.195125  -0.239461
H    -0.099701  -0.545231  0.718172
C    0.721957  -1.051360  2.684578
C    1.140735  -2.519352  2.433325
C    0.026166  -3.434055  1.897263
C    0.454215  -4.866314  1.570094
N    0.730365  -5.725186  2.801880
H    -0.246633  -1.011106  3.206676
H    1.473801  -0.631912  3.378823
H    1.512053  -2.897503  3.398120
H    2.000266  -2.531564  1.746904
H    -0.367941  -3.042540  0.946913
H    -0.834284  -3.450383  2.586388
H    1.371655  -4.900337  0.968914
H    -0.334789  -5.393604  1.021254
H    -0.097747  -5.795929  3.411526
H    0.983457  -6.686307  2.524864
H    1.507812  -5.363901  3.371792
O    0.694122  1.898814  2.801966
H    1.070165  1.280758  3.466672
Ca    -1.069619  3.824264  0.152347
