26
Energy: -32076.1075146 eV PBE+vdW (tier 2 basis)
N    2.184622  -2.555096  0.517665
C    1.152818  -1.463888  0.786625
C    1.799518  -0.479346  1.778884
O    1.109489  0.430733  2.329823
H    3.136677  -2.162891  0.641709
H    2.092943  -3.339880  1.180784
H    1.052790  -0.910215  -0.161811
C    -0.206456  -2.083242  1.179323
C    -1.428462  -1.181526  0.908828
C    -2.755384  -1.939268  1.136333
C    -3.965972  -1.062700  0.808182
N    -5.277345  -1.816192  0.984947
H    -0.178504  -2.394635  2.234885
H    -0.320240  -3.003432  0.582854
H    -1.389509  -0.824568  -0.132542
H    -1.388268  -0.291024  1.551323
H    -2.815025  -2.279495  2.182448
H    -2.773868  -2.841089  0.503062
H    -3.956603  -0.718198  -0.233577
H    -4.032702  -0.183778  1.461321
H    -6.084264  -1.212945  0.761680
H    -5.336533  -2.639512  0.366922
H    -5.406803  -2.148847  1.952198
O    3.062673  -0.568207  1.988308
H    2.100308  -2.942029  -0.433556
Ca    2.971100  1.278268  3.259383
