26
Energy: -32074.5842778 eV PBE+vdW (tier 2 basis)
N    1.031618  0.459840  0.777033
C    1.118854  -0.377066  1.966115
C    2.321723  -1.210937  1.517287
O    3.521099  -0.801068  1.649726
H    0.999729  1.461409  0.947915
H    0.332473  0.176236  0.093639
H    1.456391  0.231339  2.816569
C    -0.167327  -1.137643  2.344390
C    -0.099345  -1.939720  3.656907
C    -1.392255  -2.695915  4.045646
C    -2.515220  -1.794872  4.564109
N    -3.689553  -2.618318  5.077944
H    -0.487723  -1.789669  1.508432
H    -0.942603  -0.358398  2.398312
H    0.192670  -1.270441  4.481486
H    0.696948  -2.697340  3.593706
H    -1.123102  -3.415642  4.834081
H    -1.751883  -3.289912  3.190055
H    -2.931118  -1.133215  3.794608
H    -2.188430  -1.179117  5.411689
H    -4.445369  -2.013083  5.433891
H    -4.097774  -3.212696  4.340960
H    -3.409960  -3.240854  5.851296
O    2.185233  -2.336420  0.868276
H    1.251092  -2.631239  0.817545
Ca    5.511111  -0.483670  1.222364
