26
Energy: -32075.8088896 eV PBE+vdW (tier 2 basis)
N    -0.347225  1.562689  3.859048
C    -0.169166  0.098806  3.461880
C    1.348622  -0.129987  3.302243
O    1.780983  -1.242323  2.876742
H    -0.640619  2.145440  3.060911
H    -1.032698  1.696863  4.614466
H    -0.473345  -0.496703  4.337585
C    -0.999027  -0.280922  2.222094
C    -2.536022  -0.271680  2.409742
C    -3.145026  -1.531015  3.073975
C    -3.586945  -2.654641  2.129424
N    -4.967089  -2.416741  1.521906
H    -0.651876  -1.276355  1.909276
H    -0.722561  0.398438  1.399673
H    -2.974249  -0.111958  1.412946
H    -2.848870  0.616171  2.980255
H    -3.993502  -1.245331  3.714335
H    -2.424720  -1.989576  3.768330
H    -3.670989  -3.607395  2.665149
H    -2.903831  -2.799419  1.282818
H    -5.018956  -1.552592  0.963708
H    -5.232409  -3.194415  0.897081
H    -5.695363  -2.357069  2.250147
O    2.152112  0.807653  3.647503
H    0.578125  1.917826  4.176998
Ca    3.891650  -0.562764  3.173766
