26
Energy: -32074.8009431 eV PBE+vdW (tier 2 basis)
N    -0.096521  -0.239226  -0.269998
C    -0.114155  0.041322  1.154639
C    1.398319  0.040161  1.401280
O    2.124990  1.063297  1.179692
H    -0.245420  -1.207863  -0.540544
H    -0.595076  0.412053  -0.867836
H    -0.454988  1.073191  1.318672
C    -0.919284  -0.923239  2.047144
C    -2.440683  -0.796391  1.830040
C    -3.254380  -1.786500  2.689330
C    -4.755867  -1.617952  2.451338
N    -5.578742  -2.585142  3.291920
H    -0.677220  -0.722968  3.103288
H    -0.617497  -1.967566  1.838470
H    -2.674984  -0.957025  0.766889
H    -2.749631  0.233454  2.067974
H    -3.027364  -1.624573  3.755306
H    -2.955206  -2.819380  2.448399
H    -5.034739  -1.814037  1.408427
H    -5.107106  -0.613533  2.718962
H    -5.423396  -2.446883  4.301562
H    -6.588232  -2.459599  3.120310
H    -5.355097  -3.568506  3.078406
O    2.048270  -1.038058  1.748477
H    1.453631  -1.787999  1.964418
Ca    3.813247  2.186451  0.813422
