26
Energy: -32075.1534934 eV PBE+vdW (tier 2 basis)
N    1.634847  1.358941  0.211934
C    0.671538  0.784622  1.216412
C    1.511617  0.093923  2.299619
O    2.756516  0.207528  2.295177
H    1.649349  0.737640  -0.607694
H    1.237589  2.233512  -0.150142
H    0.199249  1.639832  1.732779
C    -0.457482  -0.064832  0.558055
C    -1.653680  -0.412242  1.476524
C    -2.985803  -0.756752  0.762165
C    -3.038523  -2.144572  0.117482
N    -4.445863  -2.469787  -0.365874
H    -0.017040  -0.972211  0.116019
H    -0.830916  0.548768  -0.276190
H    -1.879365  0.454021  2.118161
H    -1.409316  -1.257782  2.143833
H    -3.211869  0.020213  0.015179
H    -3.775279  -0.690863  1.526783
H    -2.777672  -2.938974  0.828622
H    -2.389926  -2.239324  -0.761995
H    -4.486283  -3.405940  -0.798598
H    -5.128004  -2.466349  0.408539
H    -4.782576  -1.795763  -1.070330
O    0.973377  -0.574454  3.274874
H    -0.005563  -0.612997  3.242505
Ca    3.983926  1.480018  1.094933
