26
Energy: -32075.9016065 eV PBE+vdW (tier 2 basis)
N    -0.335142  -0.676001  -0.096421
C    0.108672  -0.134627  1.257757
C    1.628979  0.102061  1.181222
O    2.289089  0.360694  2.232299
H    -0.321741  -1.706004  -0.125867
H    -1.287464  -0.368495  -0.342085
H    -0.317763  0.881094  1.314094
C    -0.452118  -0.938697  2.444971
C    0.043345  -2.387636  2.613120
C    -0.815944  -3.264175  3.557474
C    -0.737618  -2.886907  5.038898
N    -1.509536  -3.881132  5.897075
H    -1.550119  -0.915933  2.352139
H    -0.220508  -0.340569  3.337547
H    1.090416  -2.390055  2.951494
H    0.042325  -2.919483  1.647127
H    -0.472461  -4.302923  3.435318
H    -1.865406  -3.241046  3.222342
H    -1.172971  -1.904412  5.258842
H    0.293166  -2.902529  5.415042
H    -1.457263  -3.633183  6.897397
H    -2.509444  -3.916007  5.646263
H    -1.138966  -4.839372  5.803121
O    2.182256  0.135335  0.024557
H    0.325289  -0.340610  -0.822989
Ca    4.065927  0.915609  0.981263
