26
Energy: -32074.5366406 eV PBE+vdW (tier 2 basis)
N    2.342179  0.195711  0.190836
C    1.724057  0.062391  1.503125
C    2.152328  -1.382329  1.767230
O    3.303555  -1.676694  2.226826
H    1.716024  0.067506  -0.601496
H    2.930062  1.016120  0.067928
H    2.268118  0.686794  2.225272
C    0.219590  0.393384  1.573521
C    -0.411598  0.321545  2.979515
C    -1.664877  1.201585  3.195583
C    -2.918553  0.741726  2.451326
N    -4.119969  1.600461  2.827395
H    -0.341222  -0.219150  0.842466
H    0.152458  1.421560  1.184517
H    0.326842  0.670920  3.716473
H    -0.641340  -0.719429  3.257559
H    -1.426638  2.241082  2.918323
H    -1.874411  1.206517  4.276608
H    -3.196635  -0.289104  2.705636
H    -2.827062  0.820277  1.360916
H    -4.972342  1.296145  2.332538
H    -4.321528  1.552263  3.837834
H    -3.971153  2.594024  2.594724
O    1.407068  -2.401453  1.431252
H    0.522060  -2.128638  1.109717
Ca    5.089835  -2.658989  2.518272
