26
Energy: -32075.3039108 eV PBE+vdW (tier 2 basis)
N    0.379254  -0.436933  -0.163752
C    0.641106  -0.753780  1.286010
C    2.069413  -1.305517  1.374561
O    2.799440  -1.333070  0.360620
H    -0.243710  -1.164455  -0.539102
H    -0.188867  0.416871  -0.208135
H    0.669870  0.207442  1.829286
C    -0.480095  -1.641935  1.903722
C    -0.515358  -1.770167  3.443684
C    -1.834217  -2.415113  3.935621
C    -1.858067  -2.561075  5.460515
N    -3.156244  -3.182931  5.954667
H    -0.444081  -2.641567  1.442144
H    -1.425119  -1.178397  1.581249
H    -0.405491  -0.776511  3.907084
H    0.314078  -2.402741  3.806167
H    -1.956599  -3.403009  3.464229
H    -2.681376  -1.791864  3.608601
H    -1.775834  -1.592674  5.970042
H    -1.055365  -3.213185  5.827447
H    -3.152316  -3.273573  6.983091
H    -3.980081  -2.614288  5.706392
H    -3.307117  -4.127970  5.570119
O    2.584951  -1.713134  2.496098
H    1.975673  -1.652787  3.260673
Ca    2.465140  -0.450221  -1.556607
