26
Energy: -32074.5830888 eV PBE+vdW (tier 2 basis)
N    1.431234  0.898555  1.471742
C    0.087867  0.545919  1.896783
C    0.200523  0.925552  3.373918
O    0.013102  2.118818  3.777955
H    2.120184  0.151701  1.483900
H    1.490124  1.447724  0.618661
H    -0.606655  1.281171  1.468293
C    -0.476962  -0.852520  1.539744
C    0.382902  -2.109163  1.789913
C    -0.223223  -3.339767  1.075007
C    0.615520  -4.604074  1.268950
N    0.020084  -5.792104  0.525409
H    -0.683640  -0.791812  0.460438
H    -1.461143  -0.964168  2.022144
H    0.463184  -2.353379  2.867113
H    1.410099  -1.958214  1.422642
H    -0.304431  -3.111322  0.000253
H    -1.246938  -3.509285  1.444526
H    0.676933  -4.908823  2.321269
H    1.636021  -4.488955  0.882405
H    -0.033353  -5.623997  -0.490617
H    0.591344  -6.640430  0.662135
H    -0.933343  -6.013376  0.849854
O    0.584690  0.078932  4.290944
H    0.669561  -0.833144  3.938289
Ca    0.033133  3.898020  4.807922
