26
Energy: -32076.0091299 eV PBE+vdW (tier 2 basis)
N    -0.335745  1.717169  1.742964
C    -0.140696  0.663998  2.828772
C    1.376083  0.411383  2.942975
O    1.807422  -0.543931  3.655339
H    -0.489601  1.292468  0.816676
H    -1.129999  2.342524  1.938432
H    -0.419412  1.160488  3.773876
C    -1.017521  -0.583882  2.635000
C    -2.525501  -0.300482  2.812295
C    -3.432769  -1.532205  3.044933
C    -3.735770  -2.366786  1.798979
N    -4.795994  -3.420438  2.094641
H    -0.678360  -1.298748  3.399218
H    -0.791352  -1.046615  1.660393
H    -2.920579  0.278548  1.961202
H    -2.655806  0.338093  3.699424
H    -4.381889  -1.148262  3.450286
H    -2.995123  -2.168549  3.830239
H    -2.864834  -2.916287  1.421208
H    -4.143618  -1.756105  0.983272
H    -5.683221  -2.992947  2.402492
H    -5.007597  -3.987197  1.258836
H    -4.499601  -4.072054  2.836954
O    2.179343  1.228743  2.368598
H    0.532298  2.283483  1.676821
Ca    3.906841  0.159591  3.365175
