26
Energy: -32075.3246926 eV PBE+vdW (tier 2 basis)
N    0.058029  0.473271  0.259062
C    0.005064  0.117673  1.720042
C    1.456689  0.069053  2.228795
O    2.385801  0.475884  1.496942
H    -0.090783  -0.386859  -0.284230
H    -0.756191  1.055245  0.035216
H    -0.439646  0.982381  2.245824
C    -0.826714  -1.146549  2.052868
C    -2.346892  -0.997690  1.833151
C    -3.126087  -2.241707  2.318407
C    -4.636584  -2.071790  2.132003
N    -5.412668  -3.281495  2.633946
H    -0.662773  -1.401219  3.112946
H    -0.428192  -2.000811  1.480931
H    -2.565178  -0.828403  0.766901
H    -2.706479  -0.108132  2.374585
H    -2.904951  -2.415143  3.383845
H    -2.780997  -3.132334  1.769493
H    -4.914413  -1.953004  1.077224
H    -5.027586  -1.211841  2.690280
H    -6.427725  -3.150096  2.500215
H    -5.152399  -4.145783  2.135224
H    -5.261439  -3.450079  3.640090
O    1.769853  -0.330115  3.422432
H    1.018670  -0.633713  3.972089
Ca    2.307672  1.415587  -0.409281
