26
Energy: -32074.4876552 eV PBE+vdW (tier 2 basis)
N    -1.064793  1.050537  1.646033
C    -0.572848  0.340867  2.814823
C    0.877703  0.780284  2.970780
O    1.203706  1.826598  3.629712
H    -1.356526  2.013981  1.786004
H    -0.568084  0.925590  0.767433
H    -1.099747  0.743612  3.689887
C    -0.854428  -1.183385  2.779706
C    -0.492851  -1.961605  1.499976
C    -0.988695  -3.430275  1.478152
C    -2.484418  -3.574511  1.186745
N    -2.874652  -5.039089  1.036667
H    -1.939091  -1.248715  2.947082
H    -0.382610  -1.651249  3.658254
H    0.602272  -2.038024  1.361783
H    -0.877196  -1.441876  0.609580
H    -0.739086  -3.921175  2.432028
H    -0.423268  -3.957692  0.694782
H    -2.767426  -3.090813  0.243299
H    -3.122729  -3.176665  1.984707
H    -3.881333  -5.139317  0.834436
H    -2.363866  -5.494191  0.264724
H    -2.680950  -5.581454  1.891940
O    1.866781  0.193062  2.345478
H    1.581566  -0.631044  1.891843
Ca    2.328677  3.300371  4.537515
