26
Energy: -32075.1096501 eV PBE+vdW (tier 2 basis)
N    2.182183  -0.524113  0.121801
C    1.240860  -0.134534  1.227402
C    1.559105  -1.028365  2.431631
O    2.580735  -1.748384  2.425833
H    1.689369  -1.162742  -0.515798
H    2.362369  0.308334  -0.451498
H    1.549328  0.874277  1.556874
C    -0.257957  -0.026873  0.826894
C    -0.971154  -1.338576  0.444735
C    -2.357430  -1.168715  -0.227344
C    -3.487245  -0.742802  0.715022
N    -4.833154  -0.759783  0.002167
H    -0.298536  0.688691  -0.009230
H    -0.784811  0.487237  1.648153
H    -1.065140  -2.000337  1.320597
H    -0.362540  -1.898451  -0.283333
H    -2.617134  -2.141321  -0.672755
H    -2.275729  -0.454866  -1.062413
H    -3.369443  0.277685  1.099857
H    -3.592627  -1.427651  1.566283
H    -5.067918  -1.699189  -0.354407
H    -5.596804  -0.479120  0.637406
H    -4.856522  -0.114045  -0.801915
O    0.827942  -1.026551  3.506629
H    0.068547  -0.409640  3.481061
Ca    4.193607  -1.736877  1.015357
