26
Energy: -32075.8137518 eV PBE+vdW (tier 2 basis)
N    0.708716  -0.262858  0.063414
C    0.019608  -0.002505  1.400799
C    1.107258  0.575324  2.336230
O    0.848310  0.769957  3.560573
H    1.605339  0.268822  0.067504
H    0.943504  -1.257966  -0.060768
H    -0.682524  0.829363  1.227538
C    -0.728280  -1.214497  1.986585
C    -2.173349  -1.482515  1.501400
C    -2.335985  -2.221552  0.160560
C    -3.782720  -2.473446  -0.285003
N    -4.495069  -3.576465  0.491305
H    -0.781480  -1.011649  3.065359
H    -0.101024  -2.117203  1.891970
H    -2.730320  -0.532362  1.476014
H    -2.639144  -2.072867  2.305594
H    -1.779282  -3.173475  0.168391
H    -1.904582  -1.633659  -0.666033
H    -3.814088  -2.792381  -1.333462
H    -4.410395  -1.579092  -0.182216
H    -4.594018  -3.363957  1.494039
H    -5.449205  -3.715719  0.121862
H    -4.008997  -4.482190  0.409324
O    2.241230  0.901269  1.835348
H    0.149792  0.037269  -0.745969
Ca    2.840706  1.718355  3.872642
