26
Energy: -32074.2813558 eV PBE+vdW (tier 2 basis)
N    0.478137  -0.182547  1.106461
C    -0.396175  -0.478669  2.231853
C    0.524422  -0.672252  3.433001
O    0.937399  0.307782  4.140455
H    1.223471  -0.846819  0.909167
H    0.806097  0.777318  1.033370
H    -0.973719  0.429770  2.447409
C    -1.405455  -1.628388  1.972034
C    -0.941390  -2.837239  1.118272
C    -1.145956  -2.678316  -0.408597
C    -2.560997  -2.917729  -0.941942
N    -2.874426  -4.394128  -1.177120
H    -2.268941  -1.154271  1.484737
H    -1.791395  -1.973809  2.943971
H    -1.466104  -3.732277  1.486254
H    0.127082  -3.068275  1.276353
H    -0.440755  -3.328300  -0.950013
H    -0.873467  -1.656351  -0.705875
H    -2.694685  -2.439017  -1.918984
H    -3.347941  -2.545440  -0.273686
H    -2.807032  -4.960196  -0.319834
H    -3.831582  -4.513743  -1.543585
H    -2.233431  -4.807847  -1.870938
O    1.038698  -1.834426  3.748593
H    0.659156  -2.571079  3.223551
Ca    1.829961  1.387710  5.663433
