26
Energy: -32074.4827561 eV PBE+vdW (tier 2 basis)
N    -0.257655  -0.181299  0.161085
C    -0.760538  -0.125371  1.523561
C    0.286022  0.826992  2.105145
O    0.167915  2.092163  2.012527
H    -0.956270  -0.057189  -0.566789
H    0.376421  -0.945522  -0.057079
H    -1.698594  0.445591  1.516630
C    -1.050062  -1.458673  2.260396
C    0.085154  -2.500195  2.361132
C    -0.378746  -3.972483  2.490769
C    -1.080007  -4.310994  3.807235
N    -1.395932  -5.799019  3.888432
H    -1.885128  -1.895221  1.690564
H    -1.453779  -1.222186  3.256839
H    0.752895  -2.284317  3.216928
H    0.712266  -2.480780  1.455593
H    0.512897  -4.609360  2.383592
H    -1.039698  -4.209089  1.641748
H    -2.039957  -3.794417  3.928779
H    -0.452493  -4.089929  4.680169
H    -1.866567  -6.035678  4.775471
H    -2.017172  -6.104583  3.124028
H    -0.542044  -6.375406  3.835083
O    1.404307  0.408700  2.634451
H    1.433899  -0.568688  2.724035
Ca    0.567476  4.104496  1.852459
