26
Energy: -32075.9503825 eV PBE+vdW (tier 2 basis)
N    -0.343267  0.248920  0.160284
C    -0.302634  0.334856  1.682866
C    0.754056  1.399470  2.037472
O    1.165150  2.178445  1.103948
H    0.308000  -0.463681  -0.202258
H    -0.048627  1.161389  -0.236593
H    -1.268877  0.777746  1.978263
C    -0.174530  -1.069013  2.313513
C    -0.585265  -1.121320  3.802603
C    -1.001775  -2.513133  4.332641
C    0.144495  -3.502306  4.548897
N    -0.352732  -4.769323  5.234617
H    0.846892  -1.450069  2.159984
H    -0.850598  -1.726443  1.741940
H    -1.459858  -0.470662  3.949238
H    0.210254  -0.698633  4.430988
H    -1.758184  -2.954574  3.663839
H    -1.505410  -2.341133  5.296723
H    0.923193  -3.093106  5.204967
H    0.615023  -3.833933  3.615037
H    -0.766248  -4.566107  6.157692
H    0.414119  -5.442275  5.387503
H    -1.074826  -5.252686  4.679179
O    1.149507  1.548734  3.232654
H    -1.283963  0.016971  -0.190474
Ca    2.295106  3.383867  2.627476
