26
Energy: -32075.763207 eV PBE+vdW (tier 2 basis)
N    1.536275  0.353024  0.256826
C    1.251020  -0.363268  1.573746
C    2.144946  -1.621261  1.587039
O    3.044654  -1.739644  0.680940
H    1.469266  1.377151  0.342954
H    0.882349  0.060271  -0.485512
H    1.638779  0.296988  2.366213
C    -0.267870  -0.600834  1.748057
C    -0.739247  -0.872610  3.197935
C    -0.968861  0.379704  4.075652
C    -2.344150  1.051234  3.978801
N    -3.400818  0.374435  4.847740
H    -0.565815  -1.439704  1.101949
H    -0.787176  0.288460  1.354241
H    -0.022652  -1.536802  3.696852
H    -1.662729  -1.466487  3.123986
H    -0.233035  1.162793  3.836243
H    -0.761963  0.134420  5.128802
H    -2.752568  1.058770  2.960065
H    -2.303147  2.087264  4.334953
H    -4.311461  0.852402  4.759173
H    -3.143353  0.404235  5.846169
H    -3.554004  -0.613100  4.598622
O    2.018094  -2.493925  2.498155
H    2.489933  0.099717  -0.065382
Ca    3.760532  -3.638233  1.663781
