26
Energy: -32075.995192 eV PBE+vdW (tier 2 basis)
N    -0.507997  1.895327  2.469918
C    -0.197145  0.438320  2.810297
C    1.337452  0.339429  2.938436
O    1.884281  -0.785144  3.143275
H    0.357399  2.448852  2.640990
H    -0.756972  2.011936  1.476513
H    -0.604451  0.257694  3.817158
C    -0.790707  -0.541965  1.784583
C    -2.334190  -0.668739  1.736740
C    -2.935061  -1.772511  2.635430
C    -4.434010  -1.929749  2.357396
N    -5.053353  -3.091135  3.122076
H    -0.335439  -1.521170  1.989772
H    -0.421461  -0.253914  0.787117
H    -2.597055  -0.892012  0.693040
H    -2.822846  0.295714  1.953822
H    -2.771313  -1.550161  3.702087
H    -2.420021  -2.722345  2.420248
H    -4.628591  -2.134760  1.296952
H    -5.008061  -1.039724  2.644058
H    -4.969059  -2.978040  4.143127
H    -6.060243  -3.174420  2.910110
H    -4.618828  -3.992834  2.874228
O    2.034507  1.413228  2.863009
H    -1.272027  2.290484  3.033692
Ca    3.895193  0.177640  3.245927
