26
Energy: -32075.8845021 eV PBE+vdW (tier 2 basis)
N    -0.181976  1.664899  1.671036
C    -0.149340  0.469551  2.619350
C    1.337504  0.119895  2.837409
O    1.656654  -0.925777  3.477845
H    -0.336866  1.376994  0.693380
H    -0.909612  2.350298  1.915645
H    -0.512025  0.844088  3.590719
C    -1.025236  -0.700084  2.139832
C    -2.540936  -0.405339  2.110668
C    -3.380681  -1.567556  1.521992
C    -3.848437  -2.667316  2.485158
N    -5.243425  -2.407942  3.049883
H    -0.802961  -1.539807  2.814336
H    -0.683093  -1.018144  1.140514
H    -2.740392  0.479103  1.486160
H    -2.886115  -0.138804  3.123177
H    -2.805090  -2.065158  0.728336
H    -4.254024  -1.151138  0.997154
H    -3.189596  -2.798186  3.352608
H    -3.926827  -3.633084  1.972920
H    -5.531657  -3.166206  3.688064
H    -5.306511  -1.526366  3.578378
H    -5.949235  -2.366147  2.298484
O    2.229357  0.934276  2.406909
H    0.747433  2.129540  1.709406
Ca    3.817086  -0.359589  3.368637
