26
Energy: -32074.6317214 eV PBE+vdW (tier 2 basis)
N    1.481413  -0.618396  -0.290062
C    0.977278  -0.391716  1.050938
C    2.165207  -0.953143  1.843244
O    3.200590  -0.257216  2.102346
H    1.157194  -1.456389  -0.764564
H    1.537796  0.187519  -0.903571
H    0.952436  0.687998  1.254347
C    -0.382612  -1.021882  1.404844
C    -1.582148  -0.340917  0.710173
C    -2.919344  -0.966307  1.156612
C    -4.196226  -0.226964  0.754757
N    -4.622591  -0.454323  -0.693881
H    -0.525296  -0.966533  2.496371
H    -0.381424  -2.095648  1.136543
H    -1.455621  -0.404540  -0.382243
H    -1.579513  0.730044  0.967741
H    -2.949986  -0.989907  2.256868
H    -2.984040  -2.022610  0.847390
H    -4.110574  0.860024  0.878124
H    -5.044125  -0.571401  1.358465
H    -4.791022  -1.452875  -0.886229
H    -5.503904  0.043055  -0.895370
H    -3.925818  -0.118110  -1.372128
O    2.234488  -2.206469  2.204620
H    1.401326  -2.698652  2.042892
Ca    5.141952  0.162308  2.663013
