26
Energy: -603672.718717 eV PBE+vdW (tier 2 basis)
N    1.421281  0.880902  1.417361
C    0.080356  0.545989  1.833756
C    0.215953  0.952861  3.305248
O    -0.016128  2.160403  3.664491
H    2.137687  0.162434  1.420740
H    1.540284  1.588371  0.699171
H    -0.613415  1.274879  1.395371
C    -0.474258  -0.857827  1.495113
C    0.382032  -2.110841  1.773081
C    -0.228129  -3.350920  1.076355
C    0.603861  -4.617044  1.289788
N    0.003659  -5.812497  0.562310
H    -0.671184  -0.810378  0.413169
H    -1.462173  -0.958788  1.971390
H    0.454413  -2.332518  2.855337
H    1.411053  -1.972339  1.405838
H    -0.306789  -3.138441  -0.001837
H    -1.253191  -3.509718  1.446783
H    0.662045  -4.907093  2.346421
H    1.625525  -4.512831  0.903217
H    -0.047151  -5.659674  -0.456362
H    0.571140  -6.661216  0.712547
H    -0.951240  -6.025500  0.888182
O    0.661550  0.156602  4.240253
H    0.766467  -0.767881  3.927685
Pb    -0.056831  3.734923  5.184183
