26
Energy: -603674.223181 eV PBE+vdW (tier 2 basis)
N    1.004521  -0.123045  -0.285773
C    0.501469  -0.070058  1.153834
C    1.726511  0.148346  2.061846
O    2.846530  0.456050  1.528982
H    0.286716  0.183441  -0.957467
H    1.835252  0.487364  -0.390631
H    -0.086210  0.860662  1.229957
C    -0.371426  -1.276136  1.538295
C    -1.781590  -1.317787  0.906088
C    -2.644629  -2.411029  1.576734
C    -4.150860  -2.390612  1.295747
N    -4.573227  -3.096428  0.009483
H    -0.474785  -1.219516  2.632074
H    0.181269  -2.209539  1.339587
H    -1.716038  -1.485793  -0.182232
H    -2.268520  -0.339812  1.049546
H    -2.567536  -2.285719  2.667569
H    -2.234125  -3.414253  1.377616
H    -4.556654  -1.373081  1.232255
H    -4.687850  -2.916991  2.093640
H    -5.601098  -3.081214  -0.088077
H    -4.187611  -2.659964  -0.838740
H    -4.289422  -4.087785  0.008983
O    1.586265  0.075200  3.322044
H    1.300043  -1.074813  -0.552097
Pb    3.817002  0.738510  3.711737
