26
Energy: -603672.619820 eV PBE+vdW (tier 2 basis)
N    -1.060423  1.085495  1.655753
C    -0.612980  0.352201  2.819133
C    0.840596  0.797113  2.989886
O    1.119307  1.856861  3.654870
H    -1.401978  2.033507  1.786425
H    -0.609608  0.931456  0.758309
H    -1.145944  0.753336  3.690850
C    -0.896375  -1.170737  2.772043
C    -0.508595  -1.952001  1.502070
C    -0.987360  -3.427151  1.484315
C    -2.478156  -3.593795  1.176525
N    -2.847062  -5.063895  1.028188
H    -1.984330  -1.233628  2.919235
H    -0.443981  -1.636151  3.661988
H    0.589345  -2.015714  1.379774
H    -0.885196  -1.444118  0.601356
H    -0.742275  -3.908458  2.444187
H    -0.405658  -3.951931  0.711233
H    -2.757164  -3.118003  0.227820
H    -3.130999  -3.201710  1.965602
H    -3.850229  -5.177422  0.814702
H    -2.322297  -5.516109  0.263784
H    -2.657291  -5.600932  1.887877
O    1.849096  0.225232  2.384795
H    1.593261  -0.610158  1.933109
Pb    2.662406  3.200532  4.469541
