26
Energy: -603674.157534 eV PBE+vdW (tier 2 basis)
N    -0.348393  -0.678600  -0.100742
C    0.106471  -0.135401  1.250195
C    1.624608  0.098986  1.180654
O    2.272559  0.351602  2.243186
H    -0.253222  -1.703647  -0.158884
H    -1.335861  -0.446646  -0.287068
H    -0.317433  0.882107  1.305345
C    -0.456433  -0.938195  2.439131
C    0.038972  -2.386991  2.611906
C    -0.820633  -3.261339  3.558397
C    -0.740709  -2.884473  5.040271
N    -1.507345  -3.881731  5.899278
H    -1.554129  -0.914965  2.341724
H    -0.229143  -0.337172  3.330968
H    1.085755  -2.388675  2.951246
H    0.037633  -2.921109  1.647301
H    -0.477488  -4.300097  3.435630
H    -1.870278  -3.238319  3.223989
H    -1.178964  -1.903553  5.261606
H    0.290884  -2.896708  5.414370
H    -1.457233  -3.631838  6.899347
H    -2.507041  -3.923096  5.648290
H    -1.131119  -4.838067  5.807637
O    2.187170  0.131123  0.031488
H    0.231777  -0.277927  -0.859122
Pb    4.214598  0.929730  1.005859
