26
Energy: -603674.069117 eV PBE+vdW (tier 2 basis)
N    -0.505076  1.262410  3.980416
C    -0.182945  -0.031540  3.236269
C    1.334361  -0.033071  2.965415
O    1.835642  -0.950794  2.244906
H    0.321003  1.564549  4.528963
H    -0.724020  2.029722  3.325924
H    -0.360149  -0.849561  3.953371
C    -1.034468  -0.206564  1.965197
C    -2.536772  -0.543049  2.125254
C    -2.843372  -1.991771  2.575552
C    -4.083833  -2.648837  1.960952
N    -5.421274  -2.123892  2.477171
H    -0.550126  -1.003573  1.382672
H    -0.932464  0.704997  1.353568
H    -2.965452  -0.376231  1.125204
H    -3.038468  0.190659  2.777487
H    -2.877814  -2.084189  3.672551
H    -2.021014  -2.651164  2.255966
H    -4.092699  -3.723168  2.180498
H    -4.114543  -2.524872  0.870960
H    -5.520964  -2.253414  3.494911
H    -5.569258  -1.126424  2.269379
H    -6.200704  -2.637188  2.034910
O    2.062289  0.868666  3.503956
H    -1.304428  1.161032  4.620528
Pb    4.032546  -0.141731  2.562018
