26
Energy: -603674.447920 eV PBE+vdW (tier 2 basis)
N    0.970139  0.080361  -0.184055
C    0.300271  0.113371  1.186978
C    1.382428  0.469437  2.222057
O    2.523589  0.873851  1.811921
H    1.378720  -0.844592  -0.388022
H    0.309512  0.305293  -0.941553
H    -0.379286  0.982343  1.164653
C    -0.494826  -1.165940  1.498828
C    -1.750703  -1.373021  0.626031
C    -2.595395  -2.578491  1.097652
C    -3.844135  -2.761472  0.230121
N    -4.701599  -3.927409  0.701427
H    -0.787426  -1.080107  2.555541
H    0.176330  -2.038857  1.440410
H    -1.471015  -1.528730  -0.429185
H    -2.369687  -0.462199  0.658895
H    -2.892304  -2.422052  2.146863
H    -1.983717  -3.494148  1.067924
H    -3.594730  -2.976414  -0.816591
H    -4.496998  -1.879850  0.254545
H    -4.191218  -4.822943  0.672136
H    -5.037898  -3.796364  1.667392
H    -5.536288  -4.036333  0.104033
O    1.103138  0.410832  3.459764
H    1.748063  0.763853  -0.212105
Pb    3.199036  1.303582  4.075345
