26
Energy: -603674.188774 eV PBE+vdW (tier 2 basis)
N    -0.315302  1.708398  0.664397
C    0.677481  0.839890  1.433272
C    1.778217  0.421642  0.444408
O    2.649214  -0.436573  0.786616
H    -1.003320  1.137338  0.148515
H    0.174389  2.290717  -0.036996
H    1.159861  1.514150  2.160381
C    -0.061365  -0.304056  2.167140
C    0.646915  -0.852504  3.425561
C    -0.169027  -2.008576  4.043486
C    0.454342  -2.735415  5.239321
N    0.211866  -2.056408  6.585143
H    -0.259399  -1.121429  1.456659
H    -1.046281  0.088645  2.468673
H    0.781631  -0.029000  4.145797
H    1.651332  -1.214505  3.163688
H    -0.308713  -2.788690  3.279887
H    -1.189294  -1.677043  4.298314
H    1.541636  -2.849776  5.147738
H    0.017350  -3.735227  5.345439
H    0.629020  -2.610335  7.349873
H    -0.794882  -1.974591  6.792556
H    0.619987  -1.113461  6.641916
O    1.816667  0.986388  -0.704117
H    -0.842807  2.329729  1.296005
Pb    3.817483  -0.170308  -1.270674
