26
Energy: -603673.484818 eV PBE+vdW (tier 2 basis)
N    0.753459  0.771049  0.401335
C    0.273018  0.109737  1.657675
C    1.426876  -0.711966  2.247055
O    2.607133  -0.585836  1.835221
H    0.272831  1.670951  0.283746
H    0.482538  0.211063  -0.417024
H    0.131321  0.921629  2.394822
C    -1.096144  -0.617080  1.546779
C    -1.191825  -1.884726  0.673342
C    -2.622020  -2.477174  0.718925
C    -2.757870  -3.739228  -0.138710
N    -4.162772  -4.321738  -0.072613
H    -1.818708  0.138699  1.202262
H    -1.427179  -0.843005  2.575337
H    -0.469957  -2.645286  1.011973
H    -0.936979  -1.655194  -0.374522
H    -3.341056  -1.716473  0.375698
H    -2.881626  -2.712241  1.763631
H    -2.084848  -4.540372  0.191819
H    -2.564347  -3.542261  -1.200622
H    -4.876971  -3.658888  -0.411305
H    -4.238346  -5.169422  -0.657221
H    -4.427936  -4.594422  0.886253
O    1.243917  -1.527709  3.238003
H    0.321713  -1.578613  3.565519
Pb    3.293852  0.990594  0.359897
