26
Energy: -603672.427797 eV PBE+vdW (tier 2 basis)
N    -0.458148  0.391491  0.141061
C    -0.249908  0.112654  1.545139
C    1.261229  0.302733  1.737659
O    1.759640  1.463528  1.947407
H    -0.076702  -0.258878  -0.542954
H    -0.446423  1.360513  -0.165853
H    -0.742545  0.896349  2.136118
C    -0.743887  -1.285792  1.960686
C    -2.250890  -1.564530  1.750848
C    -3.205066  -0.797938  2.688093
C    -4.552968  -1.471977  2.953066
N    -5.486101  -1.516293  1.745625
H    -0.481070  -1.455490  3.016535
H    -0.207341  -2.053657  1.371898
H    -2.371767  -2.645824  1.917875
H    -2.503200  -1.382814  0.695472
H    -3.366460  0.236275  2.344823
H    -2.753091  -0.711139  3.688963
H    -5.108839  -0.935834  3.731357
H    -4.433238  -2.514214  3.275396
H    -5.096195  -2.060665  0.963634
H    -6.383390  -1.958260  1.999831
H    -5.705336  -0.572914  1.393878
O    2.129597  -0.661305  1.565393
H    1.712549  -1.547289  1.477988
Pb    3.735251  2.414617  2.306077
