26
Energy: -603674.068538 eV PBE+vdW (tier 2 basis)
N    0.652252  -0.174419  0.047222
C    0.020944  0.034134  1.422763
C    1.143324  0.536959  2.355255
O    0.910942  0.660042  3.597666
H    1.495349  0.426907  -0.031759
H    0.965084  -1.147595  -0.085788
H    -0.664644  0.891176  1.313368
C    -0.742986  -1.187615  1.967297
C    -2.182484  -1.439834  1.449560
C    -2.323245  -2.276475  0.163702
C    -3.761932  -2.537224  -0.304312
N    -4.510053  -3.584514  0.514544
H    -0.811534  -1.004432  3.048610
H    -0.117033  -2.090302  1.866457
H    -2.707124  -0.478173  1.333059
H    -2.697491  -1.952216  2.276275
H    -1.786411  -3.234541  0.261960
H    -1.854608  -1.765653  -0.693181
H    -3.768479  -2.917852  -1.332436
H    -4.381020  -1.631580  -0.273235
H    -4.637849  -3.312180  1.499383
H    -5.454056  -3.735660  0.124000
H    -4.032957  -4.498640  0.501118
O    2.266076  0.875018  1.847443
H    0.009982  0.061496  -0.721380
Pb    3.023954  1.617173  4.015409
