26
Energy: -603672.730712 eV PBE+vdW (tier 2 basis)
N    1.284943  -0.591392  -0.397099
C    0.937370  -0.354452  0.986603
C    2.153112  -0.877192  1.760424
O    3.183083  -0.137655  1.940410
H    1.373080  -1.551607  -0.721623
H    1.912847  0.060637  -0.858979
H    0.901253  0.730366  1.155705
C    -0.400141  -0.998412  1.396441
C    -1.620144  -0.332912  0.720571
C    -2.942824  -0.985298  1.169673
C    -4.231107  -0.257741  0.782941
N    -4.641066  -0.441634  -0.676396
H    -0.508655  -0.925214  2.490301
H    -0.394042  -2.074923  1.141013
H    -1.495381  -0.384595  -0.371730
H    -1.632329  0.735121  0.989242
H    -2.969500  -1.024043  2.269714
H    -2.994573  -2.037465  0.844632
H    -4.167675  0.825653  0.945107
H    -5.076186  -0.639814  1.367708
H    -4.786148  -1.435688  -0.906985
H    -5.531573  0.043642  -0.866738
H    -3.946868  -0.065115  -1.335995
O    2.270611  -2.118713  2.156080
H    1.439009  -2.633444  2.066160
Pb    5.178340  -0.071160  2.894058
