26
Energy: -603673.465818 eV PBE+vdW (tier 2 basis)
N    1.614247  1.377423  0.216332
C    0.669971  0.796924  1.228825
C    1.493750  0.081288  2.308814
O    2.749387  0.076154  2.296225
H    1.571710  0.825586  -0.650271
H    1.298915  2.317546  -0.049926
H    0.196263  1.647878  1.749703
C    -0.454882  -0.055300  0.557186
C    -1.648980  -0.421511  1.471797
C    -2.978838  -0.767449  0.751915
C    -3.031857  -2.157836  0.111287
N    -4.440000  -2.487125  -0.366433
H    -0.006098  -0.954318  0.106783
H    -0.830942  0.567830  -0.268640
H    -1.883521  0.439005  2.118922
H    -1.394839  -1.270276  2.129906
H    -3.204167  0.008011  0.003266
H    -3.769336  -0.699005  1.515204
H    -2.767410  -2.949445  0.824205
H    -2.386030  -2.254704  -0.770012
H    -4.478658  -3.424613  -0.796845
H    -5.120060  -2.484734  0.409968
H    -4.781587  -1.816380  -1.071851
O    0.926087  -0.516390  3.309787
H    -0.053947  -0.478115  3.305904
Pb    4.053672  1.355732  0.966721
