26
Energy: -603674.277774 eV PBE+vdW (tier 2 basis)
N    -0.350335  1.723919  1.744243
C    -0.140364  0.668800  2.826500
C    1.372528  0.409464  2.936301
O    1.790864  -0.555348  3.648299
H    -0.405960  1.305225  0.803444
H    -1.213515  2.265029  1.898327
H    -0.413480  1.164518  3.774234
C    -1.020102  -0.579683  2.634436
C    -2.528730  -0.295063  2.808051
C    -3.435361  -1.527352  3.044588
C    -3.736135  -2.367694  1.801425
N    -4.796394  -3.420841  2.098178
H    -0.683780  -1.291911  3.402346
H    -0.791897  -1.045760  1.662170
H    -2.923374  0.277888  1.952666
H    -2.661628  0.347201  3.692275
H    -4.384957  -1.141466  3.446831
H    -2.998974  -2.159531  3.833844
H    -2.864215  -2.918307  1.427581
H    -4.142383  -1.760427  0.982404
H    -5.685294  -2.993723  2.401693
H    -5.004734  -3.990063  1.263136
H    -4.501990  -4.070638  2.842894
O    2.180599  1.217565  2.362936
H    0.451177  2.380034  1.733084
Pb    4.045432  0.100163  3.377115
