26
Energy: -603674.265262 eV PBE+vdW (tier 2 basis)
N    -0.422053  -0.656264  -0.120644
C    0.026300  0.065636  1.145843
C    1.541295  0.306001  1.049135
O    2.180129  0.703009  2.072862
H    -0.278584  -1.674944  -0.060093
H    -1.422468  -0.492704  -0.310869
H    -0.401652  1.079745  1.058540
C    -0.539299  -0.549112  2.438278
C    -0.173863  -2.003394  2.793281
C    -0.888496  -2.434448  4.096913
C    -0.583999  -3.884374  4.481547
N    -1.320773  -4.298030  5.748327
H    -1.634059  -0.436787  2.391205
H    -0.214768  0.125378  3.244413
H    0.915469  -2.104657  2.915966
H    -0.470709  -2.697825  1.988659
H    -1.975625  -2.308268  3.969351
H    -0.583107  -1.761563  4.913776
H    0.481537  -4.046155  4.686665
H    -0.898197  -4.595492  3.707156
H    -1.103119  -5.274819  6.001006
H    -1.062922  -3.712647  6.557299
H    -2.344608  -4.236397  5.639921
O    2.107949  0.205363  -0.093949
H    0.124876  -0.322589  -0.933662
Pb    4.103745  1.187333  0.781073
