26
Energy: -603674.014820 eV PBE+vdW (tier 2 basis)
N    1.029609  -1.437395  0.210045
C    0.430633  -0.546692  1.296229
C    1.612388  0.010950  2.118020
O    2.802410  -0.152336  1.683358
H    0.450518  -1.464283  -0.639997
H    1.973309  -1.089015  -0.042685
H    0.005174  0.325690  0.772419
C    -0.645945  -1.242368  2.149939
C    -2.093902  -1.332171  1.611277
C    -2.382385  -2.374463  0.509252
C    -3.804311  -2.950159  0.490910
N    -4.896412  -1.964690  0.086096
H    -0.688363  -0.655634  3.078490
H    -0.283345  -2.239300  2.453687
H    -2.423148  -0.327455  1.301952
H    -2.698272  -1.584707  2.496276
H    -1.753905  -3.266340  0.666469
H    -2.129793  -1.994814  -0.495400
H    -4.095923  -3.330360  1.478325
H    -3.876638  -3.776771  -0.226038
H    -4.974754  -1.165847  0.731455
H    -4.752639  -1.590700  -0.863655
H    -5.816134  -2.434774  0.083523
O    1.374733  0.664329  3.180814
H    1.150293  -2.407089  0.540171
Pb    3.653802  1.165390  3.517066
