26
Energy: -603674.275759 eV PBE+vdW (tier 2 basis)
N    1.031754  -0.074000  0.267247
C    0.083153  0.069367  1.454738
C    0.921638  0.543216  2.657102
O    2.128214  0.916949  2.462424
H    1.459549  -1.012031  0.231236
H    0.556542  0.088458  -0.631643
H    -0.581477  0.914084  1.207240
C    -0.742533  -1.200933  1.719192
C    -1.794199  -1.557421  0.644544
C    -2.571899  -2.831002  1.045642
C    -3.513253  -3.436910  -0.000250
N    -4.892776  -2.786139  -0.065726
H    -1.242653  -1.034286  2.684454
H    -0.056933  -2.049883  1.880499
H    -1.310440  -1.737328  -0.330043
H    -2.474989  -0.701435  0.508322
H    -3.113108  -2.669759  1.992138
H    -1.848227  -3.630447  1.266441
H    -3.708953  -4.489875  0.234291
H    -3.106073  -3.389822  -1.018114
H    -5.385969  -2.849652  0.837578
H    -4.860745  -1.793355  -0.334746
H    -5.484818  -3.265939  -0.762381
O    0.384036  0.601851  3.806091
H    1.809029  0.605499  0.356688
Pb    2.317131  1.554793  4.772038
