26
Energy: -603674.206726 eV PBE+vdW (tier 2 basis)
N    -0.364695  0.255972  0.155252
C    -0.305935  0.339701  1.678389
C    0.763267  1.385819  2.037600
O    1.198676  2.154192  1.109901
H    0.331119  -0.406496  -0.221126
H    -0.156991  1.180464  -0.262907
H    -1.265236  0.791549  1.984076
C    -0.186560  -1.070009  2.302257
C    -0.604114  -1.128257  3.789606
C    -1.009128  -2.524925  4.317190
C    0.147236  -3.497743  4.556101
N    -0.340800  -4.763736  5.249982
H    0.832878  -1.455801  2.148536
H    -0.864610  -1.719610  1.724149
H    -1.486166  -0.486610  3.931563
H    0.183901  -0.698885  4.423087
H    -1.749547  -2.979095  3.639274
H    -1.529827  -2.355376  5.272540
H    0.913484  -3.071811  5.216174
H    0.632056  -3.832978  3.630902
H    -0.762954  -4.557279  6.168499
H    0.432879  -5.426202  5.414547
H    -1.053081  -5.261264  4.694249
O    1.147169  1.522150  3.239985
H    -1.292947  -0.051725  -0.172015
Pb    2.438930  3.439956  2.685190
