26
Energy: -603673.327530 eV PBE+vdW (tier 2 basis)
N    0.444030  0.565638  0.392232
C    0.190477  -0.091321  1.716015
C    1.541851  -0.344949  2.411057
O    2.629991  0.026495  1.903939
H    0.247742  -0.100644  -0.364696
H    -0.211105  1.342075  0.252617
H    -0.313722  0.654332  2.356649
C    -0.695184  -1.364875  1.626191
C    -2.201387  -1.117318  1.378263
C    -3.002446  -2.430756  1.543216
C    -4.527184  -2.314673  1.672869
N    -5.288290  -2.311659  0.349955
H    -0.600406  -1.917075  2.574862
H    -0.271059  -2.040683  0.864747
H    -2.360085  -0.679643  0.379610
H    -2.567415  -0.379291  2.109758
H    -2.684653  -2.912307  2.480640
H    -2.740397  -3.154250  0.754363
H    -4.840340  -1.408751  2.206905
H    -4.922505  -3.178635  2.219923
H    -6.305912  -2.275128  0.522685
H    -5.059410  -1.507964  -0.250399
H    -5.110756  -3.170275  -0.193020
O    1.619697  -0.913090  3.571527
H    0.768524  -1.184880  3.973692
Pb    2.882247  1.326480  0.089316
