26
Energy: -603672.963867 eV PBE+vdW (tier 2 basis)
N    0.604684  -0.593109  0.105119
C    0.431955  -0.141902  1.524285
C    1.785044  -0.245243  2.243796
O    2.739101  -0.912819  1.772021
H    -0.164591  -1.217920  -0.160368
H    0.541630  0.206704  -0.535366
H    0.150227  0.924034  1.522745
C    -0.638781  -0.981006  2.285770
C    -2.130729  -0.674440  2.003739
C    -2.678345  0.603010  2.683841
C    -4.137511  0.561400  3.156211
N    -5.188178  0.668644  2.054770
H    -0.461923  -0.877197  3.367139
H    -0.439852  -2.043789  2.071553
H    -2.672137  -1.550850  2.391863
H    -2.330101  -0.662214  0.919960
H    -2.509341  1.501289  2.069256
H    -2.120979  0.779457  3.617675
H    -4.339075  1.405582  3.826590
H    -4.365573  -0.363991  3.700412
H    -6.135381  0.671255  2.467308
H    -5.098209  1.543469  1.516694
H    -5.159163  -0.116602  1.389554
O    1.997985  0.328765  3.385868
H    1.264421  0.875472  3.736317
Pb    2.869163  -1.753431  -0.308395
