26
Energy: -603674.117854 eV PBE+vdW (tier 2 basis)
N    0.272554  2.166502  0.980684
C    0.836390  0.801152  1.367159
C    1.126362  0.040346  0.064611
O    1.443973  -1.188314  0.100974
H    0.719661  2.515281  0.114809
H    0.420817  2.861101  1.728648
H    1.819828  1.007730  1.821847
C    -0.086990  0.102466  2.394177
C    0.626449  -0.822504  3.406021
C    -0.356398  -1.265867  4.513501
C    0.245761  -1.844512  5.796989
N    0.623990  -3.321239  5.717857
H    -0.887482  -0.436723  1.865876
H    -0.582135  0.901317  2.970427
H    1.461187  -0.268908  3.865138
H    1.063306  -1.685127  2.881599
H    -1.122721  -1.948157  4.111479
H    -0.918269  -0.383175  4.856638
H    -0.482756  -1.783714  6.614184
H    1.153142  -1.315232  6.114274
H    1.358372  -3.512337  5.023120
H    -0.190323  -3.909335  5.485405
H    0.979595  -3.650946  6.629338
O    1.084228  0.684225  -1.042396
H    -0.742353  2.124367  0.796366
Pb    1.814813  -1.218395  -2.255725
