26
Energy: -100721.342870 eV PBE+vdW (tier 2 basis)
N    0.046483  0.476146  0.264525
C    0.001286  0.114730  1.718424
C    1.452196  0.056515  2.232663
O    2.391601  0.444452  1.514010
H    -0.072476  -0.385141  -0.282317
H    -0.784155  1.032963  0.042004
H    -0.441855  0.976357  2.250166
C    -0.830660  -1.150564  2.050419
C    -2.350091  -1.002011  1.830695
C    -3.129161  -2.245019  2.317131
C    -4.639536  -2.073184  2.137255
N    -5.414183  -3.281647  2.644885
H    -0.668147  -1.411584  3.109040
H    -0.433077  -2.002760  1.474857
H    -2.568285  -0.833537  0.764420
H    -2.709894  -0.111990  2.371266
H    -2.904080  -2.420221  3.381491
H    -2.787301  -3.135519  1.765957
H    -4.922421  -1.955601  1.083723
H    -5.027022  -1.212202  2.696337
H    -6.429745  -3.150285  2.516749
H    -5.156164  -4.146342  2.146014
H    -5.256570  -3.448553  3.650181
O    1.740446  -0.341258  3.438915
H    0.971964  -0.628193  3.971633
Sr    2.454927  1.536778  -0.501444
