26
Energy: -100720.722355 eV PBE+vdW (tier 2 basis)
N    1.440698  0.894640  1.465696
C    0.099045  0.543042  1.907053
C    0.167721  0.928350  3.388007
O    0.011967  2.118533  3.777441
H    2.126310  0.145633  1.523716
H    1.474253  1.333334  0.548814
H    -0.592961  1.276434  1.470045
C    -0.472973  -0.856711  1.553759
C    0.393944  -2.111775  1.784575
C    -0.220602  -3.342996  1.079378
C    0.629490  -4.602051  1.253186
N    0.031380  -5.790218  0.511447
H    -0.696670  -0.795399  0.478040
H    -1.450279  -0.973260  2.049541
H    0.502411  -2.358366  2.858683
H    1.412515  -1.953730  1.397181
H    -0.325006  -3.112426  0.007029
H    -1.235683  -3.519852  1.468868
H    0.708912  -4.912524  2.302607
H    1.643161  -4.477417  0.851938
H    -0.037164  -5.616169  -0.502591
H    0.609556  -6.635649  0.635455
H    -0.916177  -6.018573  0.847708
O    0.472649  0.055793  4.316766
H    0.546170  -0.852244  3.953720
Sr    0.134151  4.085458  4.841527
