26
Energy: -100721.917146 eV PBE+vdW (tier 2 basis)
N    0.568045  -0.110891  0.257387
C    0.323779  -0.231752  1.759430
C    1.675536  -0.671861  2.374857
O    1.745428  -0.917583  3.611458
H    0.116757  -0.869855  -0.272337
H    0.255192  0.783681  -0.140552
H    0.135633  0.787229  2.130081
C    -0.843414  -1.172985  2.098192
C    -2.270624  -0.681549  1.755172
C    -2.862598  0.322815  2.762264
C    -4.270164  0.840986  2.450535
N    -5.382957  -0.161284  2.746300
H    -0.769005  -1.379344  3.175653
H    -0.662657  -2.140027  1.601723
H    -2.894568  -1.587182  1.708770
H    -2.308972  -0.254719  0.738633
H    -2.238968  1.228822  2.814354
H    -2.838407  -0.098940  3.780418
H    -4.392433  1.124137  1.397329
H    -4.502660  1.717685  3.066407
H    -5.392003  -0.439886  3.738923
H    -6.306017  0.254020  2.543656
H    -5.312058  -1.019387  2.181934
O    2.693330  -0.738338  1.600320
H    1.601823  -0.200847  0.127688
Sr    4.119980  -1.322944  3.511406
