26
Energy: -100720.747387 eV PBE+vdW (tier 2 basis)
N    -0.287009  -1.511680  -0.321319
C    -0.107216  -0.554115  0.758982
C    1.426262  -0.548879  0.856994
O    2.153551  0.138587  0.086963
H    -0.503011  -2.462290  -0.030820
H    -0.888694  -1.208706  -1.080657
H    -0.388804  0.446664  0.402076
C    -0.827663  -0.861809  2.086897
C    -2.365797  -0.771042  1.996035
C    -3.037231  -1.236650  3.303152
C    -4.555209  -1.414691  3.274425
N    -5.337666  -0.106582  3.366271
H    -0.462149  -0.175445  2.867724
H    -0.570824  -1.887177  2.416810
H    -2.719948  -1.398156  1.163446
H    -2.644360  0.267212  1.751606
H    -2.751174  -0.586534  4.146353
H    -2.648413  -2.232211  3.567808
H    -4.889097  -2.007840  4.133940
H    -4.904426  -1.912546  2.360975
H    -5.151444  0.524297  2.575148
H    -6.352916  -0.289906  3.374349
H    -5.117395  0.404895  4.233563
O    2.063892  -1.346116  1.680523
H    1.460787  -1.825136  2.287226
Sr    4.035734  0.681579  -1.020577
