26
Energy: -100721.849685 eV PBE+vdW (tier 2 basis)
N    -0.218702  0.118845  0.248588
C    0.014699  -0.034821  1.748316
C    0.835652  1.202365  2.181969
O    0.992634  2.142284  1.325523
H    -0.087395  1.123668  0.011684
H    -1.156319  -0.187935  -0.044518
H    -0.974964  0.065780  2.219495
C    0.645466  -1.411187  2.060304
C    0.457299  -1.956351  3.495561
C    -0.928501  -2.574015  3.763795
C    -1.134341  -3.178462  5.156107
N    -0.484252  -4.547909  5.336451
H    1.720388  -1.360664  1.833922
H    0.216727  -2.140702  1.353811
H    0.673214  -1.168011  4.230750
H    1.244856  -2.713934  3.628087
H    -1.172974  -3.327693  2.996690
H    -1.714189  -1.807744  3.675099
H    -2.200285  -3.338910  5.355599
H    -0.729655  -2.544030  5.954646
H    -0.856564  -5.237491  4.666407
H    -0.673059  -4.917379  6.281435
H    0.538629  -4.524596  5.223171
O    1.296799  1.276217  3.356597
H    0.470264  -0.415240  -0.301818
Sr    2.185573  3.501918  2.948327
