26
Energy: -100721.838830 eV PBE+vdW (tier 2 basis)
N    -0.513426  1.239715  3.994171
C    -0.201214  -0.056612  3.250740
C    1.325840  -0.035941  2.990513
O    1.858380  -0.982138  2.345946
H    0.414591  1.682613  4.190413
H    -1.063849  1.894880  3.421911
H    -0.386406  -0.881738  3.954515
C    -1.028685  -0.221968  1.965422
C    -2.533004  -0.556201  2.099244
C    -2.844724  -2.000726  2.554978
C    -4.096230  -2.646814  1.954457
N    -5.420412  -2.088285  2.469798
H    -0.535407  -1.016593  1.387195
H    -0.916387  0.693243  1.361090
H    -2.949019  -0.396445  1.092612
H    -3.042363  0.179507  2.743754
H    -2.869612  -2.090111  3.652571
H    -2.029838  -2.666333  2.229189
H    -4.124359  -3.717731  2.188646
H    -4.130144  -2.535982  0.863100
H    -5.517045  -2.204492  3.489265
H    -5.544518  -1.089686  2.252426
H    -6.213112  -2.587910  2.036277
O    2.003213  0.940913  3.466852
H    -1.009544  1.097387  4.882857
Sr    4.073272  -0.071552  2.606055
