26
Energy: -100720.686737 eV PBE+vdW (tier 2 basis)
N    1.931408  -0.163497  0.720654
C    0.657785  -0.182202  1.420265
C    0.305095  1.281547  1.696437
O    -0.273955  2.021864  0.845595
H    2.725850  0.212546  1.235724
H    1.915188  0.165698  -0.240971
H    -0.106977  -0.559412  0.727221
C    0.719128  -1.054041  2.692542
C    1.135836  -2.523934  2.454308
C    0.030195  -3.433987  1.893461
C    0.464133  -4.863799  1.566554
N    0.736961  -5.720974  2.800397
H    -0.249125  -1.007751  3.214673
H    1.471616  -0.631946  3.384590
H    1.483109  -2.902915  3.427949
H    2.009219  -2.539766  1.785867
H    -0.345409  -3.036992  0.937956
H    -0.842863  -3.453617  2.566494
H    1.385753  -4.893337  0.971587
H    -0.319138  -5.394507  1.012832
H    -0.094558  -5.794910  3.404768
H    0.997493  -6.680768  2.526526
H    1.508320  -5.353252  3.374311
O    0.705894  1.892136  2.790852
H    1.095734  1.272302  3.444387
Sr    -1.122166  4.003017  0.153552
