26
Energy: -100721.770860 eV PBE+vdW (tier 2 basis)
N    1.016944  -1.420619  0.204414
C    0.403370  -0.535429  1.285616
C    1.603354  0.018365  2.099505
O    2.783326  -0.207933  1.657781
H    0.634799  -1.250762  -0.734006
H    2.040503  -1.203743  0.205263
H    -0.031358  0.333769  0.767598
C    -0.656536  -1.232556  2.153098
C    -2.106069  -1.343118  1.626813
C    -2.379853  -2.385950  0.522872
C    -3.799145  -2.964220  0.492094
N    -4.886739  -1.973190  0.088052
H    -0.695052  -0.638019  3.076808
H    -0.282987  -2.224356  2.460902
H    -2.450285  -0.342898  1.318610
H    -2.705284  -1.606794  2.512176
H    -1.750033  -3.275633  0.687554
H    -2.115567  -2.006430  -0.478395
H    -4.097324  -3.349153  1.475678
H    -3.869185  -3.785923  -0.230615
H    -4.962135  -1.178044  0.738059
H    -4.735593  -1.594108  -0.858277
H    -5.808358  -2.438603  0.078738
O    1.384774  0.704238  3.136454
H    0.911434  -2.421505  0.418814
Sr    3.719999  1.161614  3.482394
