26
Energy: -100722.100330 eV PBE+vdW (tier 2 basis)
N    2.179733  -2.561238  0.516035
C    1.144579  -1.472523  0.777636
C    1.798379  -0.485359  1.770555
O    1.107383  0.423922  2.312406
H    3.116611  -2.165951  0.734704
H    2.041042  -3.377325  1.130250
H    1.044434  -0.921961  -0.171862
C    -0.212839  -2.092138  1.169999
C    -1.433205  -1.188274  0.905859
C    -2.760426  -1.943669  1.134779
C    -3.968947  -1.065957  0.805738
N    -5.281507  -1.815583  0.990022
H    -0.183785  -2.406273  2.224867
H    -0.330525  -3.009919  0.570483
H    -1.396513  -0.828808  -0.134808
H    -1.388009  -0.299411  1.550232
H    -2.820014  -2.282663  2.181419
H    -2.780552  -2.846450  0.502713
H    -3.961342  -0.726921  -0.237845
H    -4.031542  -0.183570  1.454622
H    -6.088247  -1.213464  0.763609
H    -5.341802  -2.643700  0.378572
H    -5.408769  -2.140948  1.959990
O    3.060353  -0.594716  1.968647
H    2.163567  -2.897146  -0.457007
Sr    3.078946  1.407043  3.334386
