26
Energy: -100721.933047 eV PBE+vdW (tier 2 basis)
N    -0.316388  1.696004  0.666755
C    0.666990  0.833816  1.451475
C    1.781811  0.439709  0.454942
O    2.646344  -0.424094  0.777059
H    -1.102897  1.140823  0.298146
H    0.192019  2.089918  -0.150904
H    1.137061  1.507907  2.185318
C    -0.068042  -0.315300  2.173356
C    0.640673  -0.871880  3.425973
C    -0.176885  -2.026557  4.041154
C    0.441162  -2.748279  5.240703
N    0.220171  -2.039469  6.575004
H    -0.260225  -1.129361  1.457184
H    -1.054597  0.069278  2.480082
H    0.778979  -0.051460  4.149737
H    1.643643  -1.233508  3.158348
H    -0.314153  -2.808185  3.278571
H    -1.198305  -1.694728  4.292031
H    1.525868  -2.881140  5.143089
H    -0.012086  -3.738391  5.367668
H    0.634154  -2.582649  7.348782
H    -0.783779  -1.936549  6.786346
H    0.643017  -1.101818  6.606361
O    1.813644  1.052903  -0.670204
H    -0.712378  2.460820  1.230604
Sr    3.871199  -0.068811  -1.294578
