26
Energy: -100721.994053 eV PBE+vdW (tier 2 basis)
N    -0.533202  1.882540  2.499961
C    -0.215025  0.422878  2.818287
C    1.325902  0.341909  2.943217
O    1.873888  -0.775205  3.159789
H    0.368323  2.402188  2.601179
H    -0.861333  2.005893  1.531616
H    -0.625134  0.219266  3.818695
C    -0.791669  -0.542853  1.770845
C    -2.331847  -0.682785  1.709203
C    -2.936518  -1.765781  2.629480
C    -4.433230  -1.928630  2.345906
N    -5.057412  -3.073617  3.131224
H    -0.328466  -1.521474  1.960161
H    -0.420161  -0.231995  0.781023
H    -2.581900  -0.935206  0.668837
H    -2.828876  0.283952  1.895956
H    -2.779678  -1.518895  3.691868
H    -2.419606  -2.720073  2.439712
H    -4.621628  -2.155696  1.288840
H    -5.008446  -1.032517  2.610534
H    -4.974784  -2.940495  4.149964
H    -6.063864  -3.159647  2.918609
H    -4.623108  -3.980325  2.902115
O    1.995405  1.429443  2.842933
H    -1.233762  2.298060  3.126812
Sr    4.076131  0.199066  3.253235
