26
Energy: -100721.750387 eV PBE+vdW (tier 2 basis)
N    1.878973  -1.555160  -0.036494
C    0.720849  -1.114170  0.854019
C    1.358724  -0.349534  2.036420
O    2.613128  -0.094658  1.973105
H    1.664059  -1.479093  -1.040056
H    2.698569  -0.956665  0.193575
H    0.151634  -0.377227  0.267429
C    -0.159568  -2.326877  1.235753
C    -1.638256  -2.053315  1.592600
C    -2.538151  -1.689192  0.387020
C    -3.955569  -2.266428  0.399026
N    -4.887977  -1.641597  1.433177
H    0.317386  -2.856035  2.073726
H    -0.146716  -3.026545  0.384082
H    -1.696989  -1.291253  2.382336
H    -1.997067  -2.990673  2.044812
H    -2.104119  -2.104094  -0.536666
H    -2.581275  -0.600918  0.223618
H    -3.957751  -3.344064  0.606776
H    -4.446366  -2.104804  -0.568208
H    -5.005662  -0.629231  1.281103
H    -5.827503  -2.064966  1.373312
H    -4.558629  -1.779732  2.398581
O    0.643363  0.023055  3.009755
H    2.153473  -2.531303  0.149775
Sr    2.548441  1.095483  4.084424
