26
Energy: -100722.007067 eV PBE+vdW (tier 2 basis)
N    1.029712  -0.078469  0.275175
C    0.061636  0.068772  1.445131
C    0.910464  0.558605  2.644361
O    2.124649  0.897471  2.419432
H    1.279361  -1.061977  0.100139
H    0.672981  0.319796  -0.602971
H    -0.607013  0.905520  1.187942
C    -0.755248  -1.200788  1.721196
C    -1.810556  -1.563921  0.653979
C    -2.564791  -2.853259  1.043153
C    -3.510141  -3.452325  -0.000880
N    -4.881486  -2.783977  -0.065428
H    -1.248303  -1.034156  2.689917
H    -0.065456  -2.047375  1.878993
H    -1.333249  -1.719387  -0.328193
H    -2.505120  -0.716144  0.534847
H    -3.097127  -2.715775  1.998541
H    -1.828531  -3.647199  1.241655
H    -3.717790  -4.503129  0.233082
H    -3.102549  -3.407578  -1.018750
H    -5.373712  -2.841302  0.838687
H    -4.833667  -1.791221  -0.332161
H    -5.480903  -3.253580  -0.762366
O    0.377315  0.655504  3.784939
H    1.902462  0.422738  0.553831
Sr    2.359062  1.627162  4.750749
