26
Energy: -100720.646151 eV PBE+vdW (tier 2 basis)
N    -1.102424  1.016721  1.632723
C    -0.580653  0.332673  2.806917
C    0.866443  0.787776  2.973983
O    1.180159  1.826458  3.630493
H    -1.382652  1.983756  1.774378
H    -0.581963  0.909517  0.764939
H    -1.111952  0.733492  3.680226
C    -0.843825  -1.195380  2.783234
C    -0.483138  -1.972526  1.502965
C    -0.986885  -3.437794  1.476781
C    -2.482345  -3.569184  1.180671
N    -2.884579  -5.030670  1.031051
H    -1.926452  -1.272883  2.957654
H    -0.360543  -1.656383  3.659129
H    0.611638  -2.052657  1.366643
H    -0.864898  -1.448587  0.614007
H    -0.744518  -3.931894  2.430941
H    -0.423257  -3.968608  0.694346
H    -2.758069  -3.084034  0.235868
H    -3.119654  -3.164692  1.976031
H    -3.891175  -5.123267  0.825744
H    -2.374386  -5.490346  0.261629
H    -2.697333  -5.572877  1.887687
O    1.860282  0.193957  2.350074
H    1.569790  -0.624818  1.892820
Sr    2.438495  3.426071  4.592433
