26
Energy: -100720.652505 eV PBE+vdW (tier 2 basis)
N    2.370127  0.220271  0.210974
C    1.728838  0.044370  1.511585
C    2.134239  -1.405085  1.803808
O    3.282280  -1.709844  2.227455
H    1.750490  0.052945  -0.580608
H    2.827838  1.122633  0.101830
H    2.266623  0.656230  2.250075
C    0.223851  0.386983  1.576210
C    -0.414583  0.321688  2.979497
C    -1.666965  1.204545  3.186492
C    -2.916827  0.741487  2.438657
N    -4.118992  1.604519  2.802858
H    -0.338227  -0.220391  0.841346
H    0.162680  1.415597  1.187909
H    0.321827  0.672359  3.717900
H    -0.647876  -0.717062  3.263296
H    -1.426454  2.242133  2.903907
H    -1.882060  1.215910  4.266437
H    -3.197781  -0.287205  2.698433
H    -2.819277  0.812702  1.348287
H    -4.969780  1.297803  2.306997
H    -4.324075  1.564326  3.812865
H    -3.967136  2.595906  2.563335
O    1.338600  -2.407284  1.521931
H    0.460539  -2.103814  1.210578
Sr    5.288949  -2.707498  2.341846
