26
Energy: -100720.457919 eV PBE+vdW (tier 2 basis)
N    -0.265223  -0.189469  0.153621
C    -0.749311  -0.126638  1.525322
C    0.276284  0.837616  2.131108
O    0.158523  2.090132  2.027116
H    -1.001220  -0.173249  -0.548122
H    0.394581  -0.938504  -0.043183
H    -1.690686  0.439447  1.518340
C    -1.037701  -1.458844  2.269855
C    0.091961  -2.507364  2.353483
C    -0.378835  -3.977078  2.479866
C    -1.074953  -4.314760  3.798680
N    -1.401613  -5.800782  3.876114
H    -1.883268  -1.892259  1.713545
H    -1.425715  -1.220863  3.272429
H    0.771397  -2.301959  3.202649
H    0.709709  -2.484557  1.441943
H    0.508074  -4.619481  2.365834
H    -1.046415  -4.206688  1.634050
H    -2.030217  -3.791314  3.927235
H    -0.441028  -4.101665  4.668919
H    -1.869557  -6.037586  4.764330
H    -2.028455  -6.098113  3.113216
H    -0.552059  -6.382610  3.815765
O    1.376215  0.411451  2.702631
H    1.397570  -0.566066  2.781635
Sr    0.616552  4.268746  1.756406
