26
Energy: -100721.138059 eV PBE+vdW (tier 2 basis)
N    0.827622  0.840016  3.073931
C    0.505256  -0.356318  3.915429
C    1.818980  -1.112170  4.171703
O    2.914079  -0.577782  3.918871
H    0.700577  0.590125  2.086157
H    0.112144  1.554073  3.247268
H    0.231475  0.032592  4.913167
C    -0.692182  -1.226280  3.444066
C    -0.532649  -1.952044  2.093928
C    -1.593859  -3.040599  1.796016
C    -2.998455  -2.513775  1.490327
N    -3.925201  -3.643211  1.058958
H    -1.574205  -0.568445  3.442453
H    -0.906401  -1.958343  4.242408
H    0.441642  -2.463940  2.057833
H    -0.525708  -1.228502  1.262569
H    -1.636383  -3.750716  2.637448
H    -1.230594  -3.610716  0.927078
H    -2.997645  -1.794904  0.661038
H    -3.483597  -2.045780  2.355640
H    -4.026468  -4.363671  1.790078
H    -4.872172  -3.291667  0.847635
H    -3.582564  -4.118120  0.209550
O    1.830457  -2.297339  4.716127
H    0.943661  -2.652913  4.925973
Sr    3.432471  1.598769  3.349965
