23
Energy: -602162.050345 eV PBE+vdW (tier 2 basis)
N    0.751028  -0.223592  0.337759
C    0.043214  -0.008756  1.639936
C    1.066697  0.167495  2.749199
O    2.280225  -0.143570  2.644844
H    0.176820  -0.831739  -0.257867
H    0.836800  0.663926  -0.171492
H    -0.512371  0.940827  1.600354
C    -0.992442  -1.131929  1.952862
C    -0.659705  -2.589892  1.564615
C    0.659358  -3.136121  2.108138
C    -1.809533  -3.491831  2.057719
H    -1.920799  -0.846997  1.439213
H    -1.221681  -1.074971  3.026846
H    -0.646280  -2.680664  0.463323
H    0.843791  -2.903982  3.165886
H    1.562397  -2.754950  1.533522
H    0.745541  -4.221428  1.966506
H    -1.686007  -4.518382  1.692919
H    -2.776878  -3.123779  1.691162
H    -1.850666  -3.519032  3.155074
O    0.575027  0.675745  3.838974
H    1.250776  0.773887  4.547963
Pb    2.996687  -1.189264  0.737545
