23
Energy: -602162.203153 eV PBE+vdW (tier 2 basis)
N    -0.899920  0.359307  0.281288
C    -0.758584  0.033394  1.763406
C    0.511459  0.683502  2.294000
O    1.598315  0.534041  1.635086
H    -1.635903  -0.222677  -0.148252
H    -1.148724  1.346206  0.113882
H    -1.632982  0.454158  2.273500
C    -0.667992  -1.501912  1.919325
C    -0.363227  -2.080904  3.328105
C    1.108728  -1.981510  3.783124
C    -1.346177  -1.618075  4.409102
H    0.087884  -1.874873  1.209166
H    -1.642322  -1.907818  1.604323
H    -0.519792  -3.163106  3.182852
H    1.324485  -2.718474  4.567478
H    1.298960  -1.003353  4.294360
H    1.825250  -2.151479  2.965980
H    -1.237401  -0.551757  4.652482
H    -1.186713  -2.181069  5.336947
H    -2.385777  -1.794809  4.103444
O    0.492468  1.224120  3.443203
H    -0.014087  0.165980  -0.214813
Pb    2.798053  0.875110  3.641014
