23
Energy: -602162.130589 eV PBE+vdW (tier 2 basis)
N    0.353629  0.229908  0.353808
C    -0.027710  0.118165  1.797944
C    1.252982  0.129591  2.614914
O    2.343995  -0.292145  2.158812
H    -0.454894  -0.014893  -0.229891
H    0.582386  1.203882  0.117125
H    -0.637775  0.981365  2.101322
C    -0.855214  -1.170711  2.037053
C    -0.174527  -2.539039  1.804020
C    0.559478  -3.086126  3.027790
C    -1.153663  -3.554318  1.212836
H    -1.745998  -1.075076  1.397328
H    -1.229297  -1.137757  3.070870
H    0.620034  -2.416361  0.965709
H    1.085050  -4.020049  2.794673
H    -0.179803  -3.318503  3.808167
H    1.284688  -2.390262  3.468499
H    -0.674668  -4.525572  1.042695
H    -1.603427  -3.210855  0.272449
H    -1.972384  -3.714844  1.931424
O    1.116166  0.578429  3.825527
H    1.954204  0.536682  4.341327
Pb    2.303749  -1.240512  0.042597
