23
Energy: -602161.916836 eV PBE+vdW (tier 2 basis)
N    0.643500  -0.625508  0.305612
C    0.105163  -0.059664  1.585789
C    1.267920  0.239439  2.526481
O    2.388805  -0.304962  2.393452
H    -0.062929  -1.242572  -0.110300
H    0.782701  0.129067  -0.377358
H    -0.408015  0.887572  1.355943
C    -0.921969  -1.002771  2.273754
C    -0.428162  -2.250166  3.036840
C    -1.649255  -2.958545  3.655331
C    0.348126  -3.270065  2.199338
H    -1.654093  -1.289428  1.499827
H    -1.495378  -0.383154  2.979202
H    0.218234  -1.924824  3.869943
H    -2.321904  -3.351148  2.880211
H    -2.223025  -2.265914  4.285144
H    -1.335960  -3.796440  4.289454
H    -0.104582  -3.488587  1.221797
H    0.478999  -4.223237  2.729816
H    1.426437  -2.960313  2.048670
O    1.118686  1.038927  3.541449
H    0.243129  1.474973  3.595930
Pb    2.806574  -1.774680  0.698679
