23
Energy: -602162.210323 eV PBE+vdW (tier 2 basis)
N    0.708850  0.420324  0.477048
C    -0.038526  0.486229  1.802475
C    0.973886  0.579197  2.930748
O    0.660997  1.231168  3.977388
H    0.079200  0.116775  -0.281638
H    1.109991  1.330000  0.202768
H    -0.659923  1.390083  1.785945
C    -0.902054  -0.788333  1.961190
C    -1.578032  -0.986511  3.345630
C    -2.900916  -1.753580  3.157549
C    -0.719977  -1.767674  4.351543
H    -0.285111  -1.670612  1.723330
H    -1.690256  -0.725608  1.195436
H    -1.819443  0.001376  3.768804
H    -3.401673  -1.914796  4.119611
H    -2.734212  -2.736179  2.695150
H    -3.589474  -1.183921  2.519428
H    0.263566  -1.272470  4.583319
H    -0.456474  -2.771600  3.991036
H    -1.233323  -1.866412  5.315391
O    2.044702  -0.116090  2.861852
H    1.485058  -0.259476  0.543026
Pb    2.209966  0.026109  5.227935
