23
Energy: -602161.867128 eV PBE+vdW (tier 2 basis)
N    1.115202  0.109735  0.896398
C    0.271682  0.046030  2.135879
C    1.101015  -0.580878  3.252719
O    2.102047  -1.296294  3.014088
H    0.501295  0.141442  0.074900
H    1.641378  0.992118  0.877863
H    0.026482  1.077087  2.437855
C    -1.077268  -0.688909  1.891365
C    -1.147316  -2.227668  1.727835
C    -0.221888  -2.835474  0.668731
C    -1.064951  -3.003889  3.049870
H    -1.516541  -0.196659  1.008131
H    -1.745593  -0.411855  2.719980
H    -2.164096  -2.389910  1.330035
H    -0.523687  -3.857264  0.397663
H    0.799243  -3.031813  1.110798
H    -0.150994  -2.263976  -0.268882
H    -1.298305  -4.063509  2.885780
H    -1.791945  -2.626401  3.779654
H    -0.068231  -2.970283  3.513599
O    0.782255  -0.408579  4.501411
H    0.014523  0.181139  4.651077
Pb    2.719692  -1.778190  0.865252
