23
Energy: -602162.309047 eV PBE+vdW (tier 2 basis)
N    -0.267231  0.566889  1.462785
C    0.644324  0.057522  2.565994
C    2.090285  0.270287  2.157451
O    3.005861  0.130141  3.038651
H    0.024309  0.200244  0.544473
H    -1.231188  0.233755  1.667477
H    0.440957  0.664310  3.461271
C    0.349735  -1.431688  2.858114
C    -0.938995  -1.712976  3.666944
C    -2.223166  -1.146775  3.039611
C    -1.055226  -3.229767  3.867991
H    1.206174  -1.817633  3.427974
H    0.338001  -1.984986  1.902025
H    -0.808547  -1.243405  4.656363
H    -2.361794  -1.476467  1.994853
H    -2.308453  -0.046400  3.115082
H    -3.104554  -1.513034  3.581462
H    -0.155009  -3.648935  4.335703
H    -1.220661  -3.751140  2.914190
H    -1.904448  -3.461082  4.522624
O    2.388508  0.550114  0.942616
H    -0.285356  1.594069  1.395066
Pb    4.685473  0.552957  1.512280
