23
Energy: -602161.746612 eV PBE+vdW (tier 2 basis)
N    0.171451  0.110925  0.234711
C    0.038305  -0.094281  1.718575
C    1.422130  -0.084686  2.353594
O    2.469497  0.189606  1.693503
H    -0.042900  -0.776908  -0.238653
H    -0.556217  0.760419  -0.085771
H    -0.482057  0.795004  2.117209
C    -0.798650  -1.361103  2.081319
C    -1.802119  -1.192453  3.250706
C    -1.145642  -0.965894  4.619470
C    -2.864488  -0.131094  2.951367
H    -0.125177  -2.212827  2.261993
H    -1.388526  -1.616588  1.187751
H    -2.307018  -2.170444  3.298962
H    -1.889150  -1.037409  5.424228
H    -0.742356  0.060456  4.738604
H    -0.390676  -1.733240  4.868836
H    -2.451805  0.891665  2.924404
H    -3.629631  -0.123119  3.737562
H    -3.379449  -0.322616  2.000486
O    1.580336  -0.342761  3.603674
H    0.728526  -0.546354  4.089940
Pb    2.464431  0.800488  -0.445614
