23
Energy: -602161.724569 eV PBE+vdW (tier 2 basis)
N    -0.041453  -0.399230  -0.334142
C    -0.179778  -0.203017  1.148722
C    1.191316  -0.280131  1.797848
O    2.190762  -0.786787  1.210657
H    -0.838650  -0.953255  -0.671331
H    -0.117797  0.504789  -0.817545
H    -0.585243  0.803700  1.334526
C    -1.153776  -1.259256  1.746146
C    -1.422122  -1.196883  3.266363
C    -1.838825  0.199793  3.752145
C    -2.506890  -2.230494  3.609370
H    -0.785198  -2.266016  1.485787
H    -2.109080  -1.111593  1.215094
H    -0.506640  -1.511947  3.796331
H    -2.743135  0.553989  3.236446
H    -1.086753  1.005964  3.615273
H    -2.056846  0.181032  4.826296
H    -2.225558  -3.240043  3.282496
H    -3.466942  -1.971677  3.141433
H    -2.664008  -2.267372  4.693792
O    1.377576  0.142769  3.003907
H    0.550140  0.488137  3.424217
Pb    2.140244  -1.444120  -0.923221
