23
Energy: -602162.266697 eV PBE+vdW (tier 2 basis)
N    0.977406  -0.277511  -0.181247
C    0.552799  -0.102730  1.270385
C    1.412619  -0.990750  2.156750
O    1.204092  -0.977111  3.417043
H    1.996270  -0.397721  -0.280770
H    0.513934  -1.119547  -0.573789
H    0.803492  0.934860  1.543194
C    -0.964474  -0.315432  1.438440
C    -1.511312  -1.753516  1.319963
C    -3.029145  -1.712944  1.544901
C    -1.181481  -2.453140  -0.010554
H    -1.468130  0.346009  0.712970
H    -1.219505  0.091167  2.427072
H    -1.069715  -2.350670  2.137994
H    -3.534958  -1.157238  0.742471
H    -3.286250  -1.236422  2.499519
H    -3.444547  -2.727869  1.556084
H    -1.731532  -3.399143  -0.094051
H    -0.119760  -2.750122  -0.109207
H    -1.489259  -1.852024  -0.882468
O    2.347178  -1.709273  1.655195
H    0.683925  0.534608  -0.741851
Pb    2.947356  -2.434482  3.827957
