23
Energy: -602161.918094 eV PBE+vdW (tier 2 basis)
N    -0.288751  0.393811  -0.414439
C    -0.020757  0.007765  1.005937
C    1.356745  -0.646262  1.059087
O    1.823944  -1.249201  0.065545
H    -1.286584  0.607969  -0.526908
H    0.211526  1.259550  -0.653017
H    -0.023592  0.907661  1.641017
C    -1.127118  -0.954056  1.516530
C    -1.262338  -2.344450  0.852100
C    -0.377578  -3.422691  1.478019
C    -2.728492  -2.773772  0.767181
H    -2.071293  -0.395110  1.425731
H    -0.979659  -1.102353  2.596854
H    -0.947052  -2.251200  -0.258404
H    -0.455506  -4.368748  0.928698
H    -0.729280  -3.617976  2.501717
H    0.685197  -3.158056  1.546095
H    -2.831889  -3.757340  0.294342
H    -3.350576  -2.052023  0.222374
H    -3.133871  -2.857680  1.787318
O    2.066081  -0.650142  2.148997
H    1.689365  -0.127000  2.886750
Pb    0.517267  -1.489021  -1.805495
