23
Energy: -602161.833575 eV PBE+vdW (tier 2 basis)
N    0.540322  0.441194  0.649978
C    0.318304  0.091164  2.087109
C    1.585873  -0.587883  2.607782
O    2.404916  -1.137428  1.838401
H    -0.361175  0.617091  0.193953
H    1.068349  1.319692  0.576845
H    0.181794  1.019797  2.665885
C    -0.959234  -0.767337  2.306810
C    -1.215576  -2.075593  1.511042
C    -1.564830  -1.889816  0.030660
C    -0.178771  -3.184880  1.690288
H    -1.810104  -0.088834  2.141408
H    -0.995142  -1.006958  3.380589
H    -2.139468  -2.458673  1.978114
H    -2.263813  -1.063719  -0.158201
H    -2.005302  -2.802568  -0.390054
H    -0.668818  -1.698210  -0.612799
H    -0.575942  -4.157207  1.372381
H    0.208135  -3.286699  2.712550
H    0.725532  -3.049218  1.036993
O    1.841757  -0.638420  3.882892
H    1.209538  -0.147897  4.448239
Pb    1.840656  -1.411598  -0.373864
