23
Energy: -602162.19818 eV PBE+vdW (tier 2 basis)
N    -0.347306  -0.176143  -0.057526
C    -0.461938  -0.111664  1.461631
C    0.836550  0.443296  2.017152
O    1.904521  0.412415  1.306499
H    0.514803  -0.669211  -0.339083
H    -1.151312  -0.693100  -0.444866
H    -1.280210  0.584094  1.694557
C    -0.792207  -1.521849  2.006520
C    -1.199104  -1.591987  3.494770
C    -2.382253  -0.673834  3.819991
C    -1.511248  -3.056634  3.835956
H    0.058515  -2.194255  1.809517
H    -1.642796  -1.892461  1.407003
H    -0.335049  -1.281894  4.105728
H    -2.145958  0.395394  3.712804
H    -2.693970  -0.816109  4.861674
H    -3.254831  -0.903285  3.190402
H    -2.385743  -3.418973  3.277185
H    -1.740757  -3.154021  4.903607
H    -0.666162  -3.722595  3.615308
O    0.859332  0.902605  3.208026
H    -0.328271  0.754090  -0.501028
Pb    3.129394  1.338121  3.105173
