28
Energy: -243815.306409 eV PBE+vdW (tier 2 basis)
N    0.663675  1.056046  1.749137
C    1.087032  -0.230200  2.389926
C    2.505684  -0.590360  1.859343
O    3.314640  0.453019  1.821415
H    0.278436  0.838406  0.822785
H    -0.128551  1.448922  2.265233
H    1.207591  -0.020976  3.465032
C    0.053533  -1.365241  2.194751
C    0.267382  -2.600209  3.025308
C    1.092463  -3.698128  2.675628
C    -0.324857  -2.937493  4.243726
N    1.022347  -4.649923  3.623430
C    0.154624  -4.233382  4.620495
C    -1.310470  -2.261878  5.123205
C    -0.244028  -4.885858  5.762521
C    -1.692321  -3.025738  6.341483
C    -1.185742  -4.256431  6.633499
H    0.044117  -1.645933  1.130912
H    -0.944817  -0.961413  2.423234
H    1.719467  -3.812276  1.798348
H    1.520042  -5.535177  3.600991
H    -2.236654  -2.023246  4.562307
H    0.141762  -5.876491  6.009005
H    -2.413766  -2.559733  7.013015
H    -1.497459  -4.780579  7.535168
O    2.797548  -1.720444  1.520551
H    -0.952443  -1.263340  5.440173
Ba    3.018764  2.656057  1.373383
