28
Energy: -243815.166576 eV PBE+vdW (tier 2 basis)
N    0.093006  -0.325288  1.275113
C    0.649232  0.259719  2.533558
C    2.193398  0.404307  2.397712
O    2.567276  0.777983  1.186426
H    0.275442  -1.334801  1.275943
H    -0.927532  -0.241518  1.286839
H    0.275565  1.296761  2.574892
C    0.197238  -0.400793  3.854349
C    0.564810  -1.837318  4.111973
C    1.872836  -2.343872  4.327201
C    -0.301715  -2.909894  4.349751
N    1.816680  -3.649319  4.654035
C    0.492025  -4.051261  4.691336
C    -1.779414  -3.040273  4.385269
C    -0.042549  -5.275939  5.019667
C    -2.284365  -4.395068  4.729924
C    -1.460365  -5.440193  5.027419
H    -0.894384  -0.292859  3.933564
H    0.620736  0.215602  4.661397
H    2.812490  -1.801346  4.274431
H    2.619892  -4.230395  4.876365
H    -2.248303  -2.718891  3.436042
H    0.600094  -6.117636  5.283969
H    -3.366133  -4.529575  4.753327
H    -1.875110  -6.412396  5.287693
O    2.935064  0.217820  3.341056
H    -2.211430  -2.326835  5.117517
Ba    1.580518  0.932281  -0.846769
