28
Energy: -243814.630803 eV PBE+vdW (tier 2 basis)
N    0.819172  -1.521975  0.118672
C    0.094423  -0.538449  0.898975
C    0.882565  0.463833  1.773631
O    0.345978  1.168701  2.601800
H    1.244770  -1.106749  -0.708813
H    1.577629  -1.943929  0.656626
H    -0.461170  0.103180  0.194371
C    -0.943656  -1.248404  1.815099
C    -2.041807  -1.848169  1.005023
C    -1.980912  -3.016367  0.255657
C    -3.303614  -1.245923  0.682691
N    -3.145749  -3.186665  -0.466258
C    -3.988704  -2.127887  -0.237189
C    -3.961190  -0.062247  1.104434
C    -5.306092  -1.887640  -0.659149
C    -5.277624  0.167402  0.691575
C    -5.952155  -0.745269  -0.163318
H    -1.327268  -0.511683  2.533051
H    -0.419033  -2.023742  2.391508
H    -1.164964  -3.726336  0.169826
H    -3.299154  -3.928021  -1.144440
H    -3.446742  0.659680  1.741342
H    -5.813089  -2.553422  -1.359092
H    -5.789261  1.078614  1.001868
H    -6.967803  -0.523089  -0.488956
O    2.195304  0.470297  1.484784
H    2.623565  1.149207  2.045857
Ba    -5.329372  -2.326609  2.398753
