28
Energy: -243814.620456 eV PBE+vdW (tier 2 basis)
N    -0.360420  0.462499  0.576299
C    -0.093890  -0.242897  1.815210
C    1.405851  -0.514554  2.024505
O    2.212641  -0.505541  1.125744
H    -0.352113  1.471640  0.717020
H    0.384612  0.254096  -0.096321
H    -0.466071  0.341186  2.668154
C    -0.828441  -1.629104  1.808854
C    -2.295747  -1.433887  1.626567
C    -2.914732  -1.020797  0.449897
C    -3.315100  -1.397070  2.635245
N    -4.253737  -0.773574  0.673168
C    -4.548651  -0.987398  1.998045
C    -3.349242  -1.731777  4.013285
C    -5.775337  -0.971986  2.680092
C    -4.576193  -1.736879  4.684014
C    -5.781171  -1.379401  4.022249
H    -0.604775  -2.164432  2.741426
H    -0.412257  -2.222413  0.982177
H    -2.477755  -0.869260  -0.530529
H    -4.887760  -0.379196  -0.016644
H    -2.431079  -1.986682  4.544704
H    -6.696381  -0.649762  2.192029
H    -4.609780  -1.988047  5.744178
H    -6.715874  -1.364419  4.581577
O    1.681209  -0.797065  3.317810
H    2.643622  -0.964902  3.388060
Ba    -4.747014  -3.864527  2.514877
