28
Energy: -243815.331588 eV PBE+vdW (tier 2 basis)
N    0.085498  0.454085  0.083865
C    -0.093680  0.080092  1.479333
C    1.157212  0.607586  2.184331
O    1.048920  1.584335  3.002320
H    0.780741  -0.104891  -0.407080
H    -0.788134  0.468785  -0.438111
H    -0.924204  0.681183  1.873650
C    -0.437348  -1.391746  1.828583
C    0.520470  -2.486815  1.249441
C    0.777135  -3.583651  2.221181
C    0.054751  -3.259588  0.032446
N    0.522467  -4.744687  1.681381
C    0.078573  -4.630089  0.342798
C    -0.371395  -2.878631  -1.232799
C    -0.288741  -5.644405  -0.532153
C    -0.749963  -3.878405  -2.139295
C    -0.708663  -5.236762  -1.798646
H    -1.450532  -1.603641  1.462832
H    -0.486160  -1.478311  2.924822
H    1.126062  -3.496335  3.247669
H    0.628358  -5.637959  2.166796
H    -0.425006  -1.832241  -1.526537
H    -0.253854  -6.696542  -0.252700
H    -1.088738  -3.592221  -3.133996
H    -1.010963  -5.984877  -2.529322
O    2.314751  0.143229  1.870724
H    1.504876  -2.006850  1.059929
Ba    3.371997  2.269617  2.701988
