28
Energy: -243815.948046 eV PBE+vdW (tier 2 basis)
N    0.388882  -1.192567  0.248903
C    0.192874  -0.097208  1.260052
C    1.475817  0.122450  2.034080
O    1.573170  1.164087  2.760496
H    0.591279  -0.844986  -0.694565
H    -0.531565  -1.720505  0.237649
H    -0.089158  0.816897  0.725166
C    -0.991799  -0.529598  2.203697
C    -2.104789  -1.101151  1.396535
C    -2.503322  -2.436512  1.362715
C    -2.961138  -0.388570  0.478619
N    -3.550017  -2.572029  0.495964
C    -3.859287  -1.345133  -0.068100
C    -3.068851  0.957195  0.083521
C    -4.845619  -1.002748  -0.995957
C    -4.047550  1.301006  -0.840109
C    -4.921647  0.332347  -1.374018
H    -1.291604  0.367617  2.761398
H    -0.623422  -1.265357  2.933796
H    -2.148170  -3.281603  1.945112
H    -4.051181  -3.436148  0.323554
H    -2.428820  1.729741  0.513018
H    -5.533010  -1.744665  -1.400343
H    -4.155718  2.339246  -1.150010
H    -5.681139  0.639984  -2.090977
O    2.401148  -0.764996  1.987153
H    1.165691  -1.802041  0.553084
Ba    3.822825  0.587507  3.631773
