28
Energy: -243815.247949 eV PBE+vdW (tier 2 basis)
N    1.107150  0.424551  0.913471
C    0.899667  -0.444351  2.119353
C    2.014308  -0.204204  3.168612
O    3.179010  0.138707  2.656131
H    0.749082  -0.059551  0.084031
H    0.496587  1.242323  1.001704
H    -0.049546  -0.173178  2.599996
C    0.839743  -1.924726  1.679561
C    0.772653  -2.976150  2.756629
C    1.419968  -4.222213  2.647342
C    0.066292  -3.017770  3.969975
N    1.142953  -4.994979  3.719510
C    0.314490  -4.288662  4.571184
C    -0.741235  -2.035486  4.718471
C    -0.207766  -4.663371  5.793295
C    -1.299472  -2.512214  5.997895
C    -1.030546  -3.753288  6.508856
H    1.721630  -2.136252  1.053584
H    -0.038758  -2.035041  1.020131
H    2.056233  -4.592011  1.848402
H    1.491769  -5.935927  3.873161
H    -1.532924  -1.562725  4.110283
H    0.005690  -5.647207  6.214846
H    -1.932400  -1.821013  6.555071
H    -1.443764  -4.057178  7.468791
O    1.778942  -0.346509  4.356667
H    -0.057512  -1.171640  4.942497
Ba    3.812757  1.341065  0.831549
