28
Energy: -243815.409362 eV PBE+vdW (tier 2 basis)
N    1.974355  1.441375  3.171937
C    1.564458  0.000135  3.145551
C    0.554077  -0.187221  1.977307
O    0.942075  0.417219  0.870538
H    1.242857  1.973495  3.657214
H    2.799646  1.545973  3.769377
H    2.462929  -0.572067  2.863551
C    1.042762  -0.510605  4.508027
C    0.970064  -2.006286  4.648763
C    2.063939  -2.847753  4.936169
C    -0.150715  -2.846353  4.586071
N    1.658029  -4.133750  5.030184
C    0.291032  -4.182664  4.822767
C    -1.582200  -2.609312  4.322159
C    -0.561539  -5.268094  4.830323
C    -2.439978  -3.809997  4.363088
C    -1.948967  -5.066490  4.593759
H    0.048350  -0.078384  4.689597
H    1.706204  -0.119358  5.294885
H    3.106513  -2.586619  5.094620
H    2.256061  -4.925876  5.243274
H    -1.679395  -2.119602  3.326302
H    -0.185653  -6.275625  5.017239
H    -3.507137  -3.667387  4.190541
H    -2.615449  -5.926918  4.603908
O    -0.476769  -0.820442  2.106668
H    -2.006505  -1.831076  4.986049
Ba    2.103960  2.328681  0.458131
