28
Energy: -243816.540912 eV PBE+vdW (tier 2 basis)
N    -1.504223  -1.150886  2.024985
C    -0.062108  -1.356629  1.719704
C    0.256479  -2.822871  1.971253
O    -0.396928  -3.530253  2.750652
H    -2.052209  -1.498440  1.230421
H    -1.685272  -0.143503  2.032823
H    0.171525  -1.125611  0.669383
C    0.855891  -0.461969  2.614777
C    0.854513  -0.848186  4.061631
C    1.794875  -1.642912  4.691231
C    -0.175472  -0.602929  5.038046
N    1.384516  -1.945402  5.968018
C    0.169985  -1.353502  6.212922
C    -1.365228  0.165309  5.055564
C    -0.688911  -1.449598  7.318833
C    -2.214276  0.076979  6.159817
C    -1.894014  -0.746961  7.266906
H    0.536732  0.581613  2.471018
H    1.873055  -0.523259  2.207073
H    2.743959  -2.014076  4.316276
H    1.932715  -2.467532  6.644574
H    -1.608374  0.841084  4.235650
H    -0.418963  -2.031261  8.200428
H    -3.121711  0.679464  6.192297
H    -2.573703  -0.788409  8.116837
O    1.316348  -3.245325  1.315782
H    1.500081  -4.186974  1.522190
Ba    -2.210283  -2.625960  4.388908
