28
Energy: -243814.701305 eV PBE+vdW (tier 2 basis)
N    0.776799  -0.472204  0.372537
C    -0.066531  -0.033271  1.465811
C    0.804020  0.458123  2.621071
O    2.012323  0.396228  2.638773
H    0.458231  -0.120508  -0.527612
H    1.741700  -0.173903  0.525648
H    -0.740778  0.793909  1.191036
C    -0.987180  -1.213694  1.951035
C    -0.139995  -2.364698  2.381778
C    0.597778  -3.178576  1.526606
C    0.315102  -2.679009  3.705607
N    1.441771  -3.995173  2.250999
C    1.309203  -3.724097  3.590765
C    -0.047938  -2.233789  5.001897
C    1.875038  -4.346073  4.714760
C    0.499754  -2.871583  6.119612
C    1.438545  -3.928470  5.980599
H    -1.621749  -1.493716  1.100901
H    -1.646681  -0.862851  2.755189
H    0.585445  -3.213386  0.443293
H    2.139927  -4.608810  1.839573
H    -0.744532  -1.403135  5.123370
H    2.635465  -5.122090  4.615983
H    0.230085  -2.532865  7.119974
H    1.870848  -4.382275  6.871620
O    0.055623  0.948005  3.642506
H    0.677152  1.331359  4.294139
Ba    -1.131874  -4.960146  4.648155
