28
Energy: -243815.731076 eV PBE+vdW (tier 2 basis)
N    -1.367164  1.954327  2.350139
C    -0.087650  1.280835  2.443362
C    0.901857  1.603800  1.315712
O    2.153680  1.409035  1.509186
H    -1.355929  2.888000  2.755285
H    -1.694655  2.028252  1.385911
H    0.408962  1.583054  3.375527
C    -0.306428  -0.261472  2.484356
C    -1.399336  -0.596722  3.525977
C    -2.177571  -1.822405  3.266999
C    -1.038910  -0.744454  4.981812
N    -2.303520  -2.523304  4.366982
C    -1.633333  -1.926748  5.458448
C    -0.310153  0.036248  5.872357
C    -1.544554  -2.376977  6.769968
C    -0.195161  -0.397828  7.198079
C    -0.802235  -1.581173  7.641756
H    0.630508  -0.784413  2.711069
H    -0.650277  -0.593682  1.492989
H    -2.635588  -2.140589  2.333277
H    -2.837323  -3.391051  4.435584
H    0.162344  0.967588  5.565622
H    -2.027099  -3.294277  7.104495
H    0.376316  0.200718  7.905972
H    -0.696040  -1.882514  8.682369
O    0.469137  2.060617  0.200139
H    -2.111154  0.272686  3.392399
Ba    2.773273  2.372449  -0.681772
