28
Energy: -243815.878235 eV PBE+vdW (tier 2 basis)
N    -0.275859  1.165742  0.301850
C    -0.046006  0.935011  1.777981
C    1.117206  -0.052717  1.909776
O    1.401865  -0.514297  3.058238
H    -1.114153  0.601541  0.003158
H    0.556261  0.835703  -0.217075
H    0.304512  1.881707  2.217847
C    -1.355830  0.472974  2.467226
C    -2.074867  -0.566600  1.670393
C    -2.030346  -1.940115  1.831919
C    -2.931554  -0.313148  0.532845
N    -2.791720  -2.541505  0.862025
C    -3.356923  -1.583253  0.045559
C    -3.423736  0.855270  -0.092833
C    -4.215832  -1.716038  -1.048238
C    -4.274639  0.721864  -1.182584
C    -4.658495  -0.548542  -1.658098
H    -1.991041  1.357867  2.618813
H    -1.083006  0.113343  3.467089
H    -1.552391  -2.529223  2.607859
H    -2.986892  -3.534369  0.809425
H    -3.199049  1.849897  0.300454
H    -4.539726  -2.693746  -1.403208
H    -4.676112  1.612134  -1.664155
H    -5.333954  -0.614869  -2.509341
O    1.806617  -0.343522  0.869193
H    -0.461925  2.148915  0.075878
Ba    3.458594  -1.683022  2.285006
