28
Energy: -243815.340479 eV PBE+vdW (tier 2 basis)
N    1.027368  0.952294  0.779683
C    0.201173  0.116861  1.640883
C    1.202043  -0.609395  2.542881
O    2.057797  -1.433283  2.051500
H    1.509510  0.445508  0.039758
H    0.226811  -1.017732  -0.849725
H    -0.337633  0.792654  2.318871
C    -0.899385  -0.756217  0.980156
C    -0.507421  -1.607682  -0.260003
C    0.124110  -2.922816  0.034640
C    -1.664376  -2.010065  -1.147756
N    -0.532626  -3.880904  -0.564606
C    -1.637853  -3.404328  -1.307626
C    -2.659810  -1.280955  -1.783156
C    -2.550731  -4.124520  -2.068924
C    -3.596449  -1.979500  -2.556558
C    -3.544415  -3.373933  -2.697755
H    -1.672245  -0.058073  0.630040
H    -1.387586  -1.390110  1.735052
H    1.004267  -3.106337  0.645315
H    -0.276290  -4.868674  -0.512934
H    -2.720525  -0.196634  -1.696100
H    -2.499386  -5.207299  -2.174369
H    -4.385387  -1.425625  -3.063388
H    -4.290655  -3.879732  -3.307932
O    1.262613  -0.274217  3.776479
H    0.523609  1.744930  0.386906
Ba    3.606473  -0.877221  3.978670
