28
Energy: -243815.510331 eV PBE+vdW (tier 2 basis)
N    -0.636357  -1.416229  1.948393
C    0.618518  -1.410818  1.220316
C    1.662570  -0.591226  1.988087
O    2.725219  -0.187943  1.395925
H    -0.473663  -1.318656  2.950412
H    -0.266668  -1.222563  -2.177175
H    1.097931  -2.415929  1.147390
C    0.468386  -0.856737  -0.214242
C    -0.299750  -1.764716  -1.204619
C    0.316844  -3.083283  -1.520285
C    -1.740486  -2.143062  -0.944949
N    -0.596120  -4.019067  -1.503021
C    -1.877426  -3.524452  -1.162366
C    -2.864300  -1.401155  -0.605930
C    -3.078045  -4.218858  -1.062720
C    -4.086534  -2.074462  -0.494213
C    -4.193527  -3.455830  -0.718566
H    1.464530  -0.657904  -0.631166
H    -0.067125  0.100721  -0.161850
H    1.350569  -3.295976  -1.783623
H    -0.415940  -4.996450  -1.742169
H    -2.802563  -0.330499  -0.420353
H    -3.151882  -5.289398  -1.248744
H    -4.980059  -1.512197  -0.226822
H    -5.163927  -3.940594  -0.626363
O    1.472067  -0.343306  3.230244
H    -1.176902  -2.264040  1.794803
Ba    3.579642  0.927627  3.442606
