28
Energy: -243816.296943 eV PBE+vdW (tier 2 basis)
N    1.307751  -1.559915  0.818625
C    0.536156  -0.395148  1.311501
C    1.462749  0.442360  2.191454
O    2.470316  -0.038429  2.720281
H    1.866930  -1.269701  0.010285
H    0.650870  -2.258657  0.459514
H    0.190722  0.244306  0.481671
C    -0.747331  -0.853625  2.105045
C    -0.570033  -2.146979  2.837154
C    -1.030175  -3.377637  2.407348
C    0.207952  -2.403843  4.023818
N    -0.545308  -4.377145  3.219016
C    0.238528  -3.828120  4.204469
C    0.886967  -1.589477  4.961494
C    1.014548  -4.440495  5.201343
C    1.658053  -2.198864  5.952116
C    1.741399  -3.609949  6.054728
H    -1.556746  -0.962070  1.371649
H    -1.059538  -0.045272  2.782069
H    -1.688685  -3.615272  1.576727
H    -0.801109  -5.357153  3.147509
H    0.811106  -0.503253  4.924162
H    1.031960  -5.523385  5.325018
H    2.175591  -1.581715  6.686052
H    2.341810  -4.053086  6.848080
O    1.165240  1.702984  2.435168
H    0.390667  2.023586  1.932027
Ba    2.997440  -2.504872  3.029985
