28
Energy: -243816.665865 eV PBE+vdW (tier 2 basis)
N    0.045784  0.411514  0.242693
C    -0.501253  0.352714  1.658221
C    0.676820  0.698951  2.585304
O    0.426496  1.228044  3.701920
H    0.024351  1.364205  -0.145683
H    -0.454360  -0.208505  -0.408465
H    -1.300023  1.095467  1.755029
C    -1.021746  -1.089748  1.957226
C    -0.999545  -1.403566  3.421408
C    -1.956973  -1.070836  4.356532
C    0.113429  -1.941870  4.155196
N    -1.491144  -1.334573  5.621940
C    -0.224363  -1.855406  5.548016
C    1.351095  -2.519351  3.793249
C    0.667137  -2.245908  6.557769
C    2.228232  -2.937077  4.798475
C    1.899806  -2.778647  6.167277
H    -0.382393  -1.810917  1.423619
H    -2.034159  -1.190264  1.542930
H    -2.946913  -0.648711  4.214541
H    -2.034355  -1.221824  6.471761
H    1.618403  -2.658729  2.745934
H    0.398544  -2.176378  7.611955
H    3.165078  -3.424675  4.528635
H    2.594958  -3.128959  6.929403
O    1.828320  0.311388  2.205338
H    1.043908  0.120153  0.322885
Ba    2.442299  0.148848  4.828579
