28
Energy: -243816.464843 eV PBE+vdW (tier 2 basis)
N    -1.406253  1.236707  2.153426
C    -0.343863  0.208728  2.290686
C    0.077753  -0.218569  0.893048
O    -0.636492  -0.073184  -0.109960
H    -1.881171  1.330539  3.056065
H    -0.963621  2.145887  1.985642
H    0.556534  0.605497  2.783112
C    -0.833206  -1.015711  3.153572
C    -2.300291  -1.284337  3.029512
C    -3.264238  -0.910672  3.947302
C    -3.015439  -1.826460  1.901622
N    -4.522625  -1.139410  3.438018
C    -4.416814  -1.672635  2.177443
C    -2.630614  -2.431834  0.681745
C    -5.404674  -1.983664  1.229804
C    -3.613094  -2.741905  -0.259796
C    -4.984024  -2.494682  0.001359
H    -0.595278  -0.784214  4.199571
H    -0.226559  -1.894329  2.895176
H    -3.141860  -0.503576  4.946986
H    -5.388487  -1.009725  3.952237
H    -1.586656  -2.666985  0.477762
H    -6.464883  -1.857214  1.449479
H    -3.329835  -3.221082  -1.196583
H    -5.727026  -2.760412  -0.749353
O    1.271029  -0.771690  0.861305
H    1.508410  -1.043039  -0.051381
Ba    -3.162726  0.433972  -0.008795
