28
Energy: -243814.60747 eV PBE+vdW (tier 2 basis)
N    -0.421802  -0.562880  -0.127428
C    -0.373309  -0.181403  1.278684
C    0.938050  0.518045  1.677708
O    1.790975  0.035012  2.401408
H    -0.530139  0.252365  -0.730289
H    0.428902  -1.046867  -0.419747
H    -1.194958  0.530398  1.454533
C    -0.587854  -1.450815  2.140405
C    -0.852322  -1.185036  3.589964
C    0.087425  -0.974307  4.592046
C    -2.132314  -1.005170  4.218042
N    -0.536998  -0.707615  5.792383
C    -1.900248  -0.716308  5.615436
C    -3.470739  -1.140255  3.768559
C    -2.948733  -0.620948  6.544847
C    -4.510601  -1.069286  4.699970
C    -4.253653  -0.827675  6.076514
H    0.300965  -2.088308  2.037403
H    -1.431434  -1.985233  1.682007
H    1.169948  -0.960241  4.502754
H    -0.052233  -0.427614  6.641158
H    -3.686599  -1.302544  2.711359
H    -2.763278  -0.390648  7.595024
H    -5.543090  -1.167088  4.364417
H    -5.089355  -0.747604  6.770808
O    1.040994  1.720010  1.085259
H    1.916007  2.099697  1.305128
Ba    -2.796740  -3.496157  5.432261
