28
Energy: -243815.470097 eV PBE+vdW (tier 2 basis)
N    -0.396476  -1.822362  2.029240
C    0.747046  -1.559123  1.176091
C    1.693663  -0.641827  1.960336
O    2.934812  -0.938084  2.054012
H    -0.971760  -0.994379  2.178659
H    -0.270626  -1.240723  -2.179159
H    1.293190  -2.504897  1.038374
C    0.499126  -0.917610  -0.219554
C    -0.299296  -1.796166  -1.214518
C    0.276758  -3.127002  -1.554551
C    -1.742046  -2.141266  -0.923956
N    -0.658106  -4.040843  -1.519747
C    -1.917495  -3.518252  -1.143429
C    -2.843430  -1.371568  -0.570347
C    -3.132528  -4.182767  -1.016469
C    -4.078749  -2.014680  -0.431111
C    -4.221869  -3.394308  -0.647166
H    1.466663  -0.668608  -0.682498
H    -0.046642  0.029233  -0.099812
H    1.298616  -3.363667  -1.842965
H    -0.506470  -5.020881  -1.768106
H    -2.758782  -0.297774  -0.407939
H    -3.236646  -5.250838  -1.202485
H    -4.954539  -1.430066  -0.152978
H    -5.200978  -3.856303  -0.533066
O    1.217226  0.399360  2.535603
H    -0.983266  -2.581576  1.692614
Ba    3.306601  0.771976  3.804924
