28
Energy: -243815.74654 eV PBE+vdW (tier 2 basis)
N    -1.159529  0.009337  1.094978
C    -0.256233  0.849903  1.862776
C    1.066391  1.212566  1.154916
O    1.372760  0.648915  0.048124
H    -0.667686  -0.789137  0.690490
H    -1.581289  0.516883  0.317403
H    -0.750016  1.818731  2.046213
C    0.057861  0.203832  3.227399
C    -1.155887  0.147867  4.202183
C    -2.364818  -0.557141  3.671566
C    -0.871888  -0.630208  5.468009
N    -2.680587  -1.550263  4.459145
C    -1.811250  -1.666192  5.573028
C    0.095485  -0.497475  6.454622
C    -1.846433  -2.587415  6.611123
C    0.085537  -1.411961  7.516379
C    -0.865515  -2.438094  7.593700
H    0.852899  0.766094  3.733240
H    0.428364  -0.820256  3.071078
H    -2.935757  -0.316827  2.781533
H    -3.485398  -2.161003  4.307359
H    0.838144  0.298933  6.421818
H    -2.594111  -3.377369  6.666528
H    0.830940  -1.320343  8.305001
H    -0.844037  -3.128123  8.435409
O    1.832604  2.096924  1.680891
H    -1.456844  1.188406  4.431211
Ba    3.390293  2.070416  -0.239127
