28
Energy: -606655.820524 eV PBE+vdW (tier 2 basis)
N    0.163863  1.830260  1.860615
C    0.174567  0.356450  2.163855
C    1.213943  -0.300008  1.257879
O    2.085257  0.354741  0.628401
H    -0.626542  2.039231  1.234587
H    -0.037390  2.353451  2.721283
H    0.588728  0.243246  3.182365
C    -1.250271  -0.268605  2.132964
C    -1.437090  -1.558160  2.961070
C    -2.931508  -1.928901  3.080591
N    -3.145715  -3.065836  3.981247
C    -3.945431  -4.137435  3.767279
N    -4.459924  -4.782965  4.816714
N    -4.215465  -4.565771  2.529187
H    -1.556504  -0.424426  1.086700
H    -1.921518  0.501939  2.544922
H    -1.029988  -1.399496  3.972558
H    -0.882520  -2.397899  2.524032
H    -3.356139  -2.169282  2.098364
H    -3.504129  -1.067917  3.462005
H    -2.885721  -2.917789  4.952922
H    -4.516561  -4.357017  5.735620
H    -4.936492  -5.261667  2.367933
H    -3.625175  -4.334370  1.741054
H    -4.851854  -5.715128  4.723549
O    1.171171  -1.594917  1.210754
H    1.897144  -1.973677  0.660170
Pb    2.256263  2.636945  0.711378
