28
Energy: -606655.438441 eV PBE+vdW (tier 2 basis)
N    0.641433  -0.809488  -0.155450
C    0.108835  -0.523877  1.220103
C    1.297158  -0.246638  2.147806
O    2.458759  -0.636561  1.868589
H    0.145533  -1.612897  -0.559396
H    0.427452  -0.022811  -0.781123
H    -0.497862  0.395148  1.172844
C    -0.789646  -1.697782  1.726957
C    -1.486454  -1.472011  3.083954
C    -2.452819  -2.592492  3.521557
N    -3.739688  -2.557737  2.814652
C    -4.652336  -3.566540  2.861037
N    -5.791957  -3.439148  2.177796
N    -4.400319  -4.686977  3.542209
H    -0.182734  -2.616520  1.770926
H    -1.550608  -1.846378  0.944721
H    -2.028614  -0.510921  3.085279
H    -0.739518  -1.414485  3.889147
H    -2.606050  -2.484474  4.607517
H    -1.988009  -3.573585  3.345684
H    -4.142957  -1.635872  2.664820
H    -5.928549  -2.704768  1.492490
H    -5.017727  -5.490178  3.464622
H    -3.729004  -4.715354  4.300618
H    -6.571771  -4.072560  2.326103
O    1.155756  0.381304  3.273975
H    0.256932  0.728465  3.452552
Pb    3.162642  -1.209236  -0.196911
