28
Energy: -606655.587796 eV PBE+vdW (tier 2 basis)
N    0.417264  0.497996  0.191978
C    -0.084608  0.393085  1.607135
C    1.114766  0.511746  2.547223
O    2.276763  0.792070  2.153937
H    0.369381  -0.431609  -0.247519
H    -0.223848  1.081266  -0.358613
H    -0.698987  1.287450  1.805705
C    -0.937197  -0.898527  1.819534
C    -1.918327  -0.944524  3.016746
C    -3.308007  -0.339597  2.725546
N    -4.214264  -0.414424  3.873627
C    -5.319383  -1.185955  3.988191
N    -6.265134  -0.842379  4.865270
N    -5.478021  -2.279472  3.232501
H    -0.247921  -1.753064  1.888247
H    -1.509354  -1.039440  0.888578
H    -1.484041  -0.468942  3.905731
H    -2.039526  -2.003103  3.286384
H    -3.786885  -0.847323  1.877069
H    -3.230082  0.721602  2.441723
H    -4.086047  0.276209  4.607277
H    -6.328977  0.094770  5.248543
H    -6.373762  -2.756136  3.196780
H    -4.690618  -2.770640  2.829451
H    -6.980459  -1.501993  5.155892
O    0.849921  0.325291  3.802632
H    1.644850  0.433653  4.377160
Pb    2.809503  1.276990  -0.013728
