28
Energy: -606655.464155 eV PBE+vdW (tier 2 basis)
N    2.131062  0.885288  2.364338
C    1.392623  -0.421014  2.285509
C    0.853690  -0.584952  0.862720
O    0.698877  0.397582  0.095610
H    1.900522  1.360851  3.245039
H    3.142352  0.709009  2.415390
H    2.109236  -1.236944  2.473609
C    0.259264  -0.483276  3.357199
C    -0.456470  -1.839321  3.527621
C    -1.421261  -1.811540  4.738833
N    -2.229317  -3.028316  4.847954
C    -2.357517  -3.821162  5.941018
N    -3.480613  -4.521421  6.106328
N    -1.374906  -3.916573  6.843645
H    -0.478136  0.307784  3.145043
H    0.748164  -0.219648  4.309019
H    0.277742  -2.648293  3.668999
H    -1.047743  -2.079975  2.630581
H    -2.103664  -0.951672  4.650204
H    -0.868638  -1.671026  5.676156
H    -2.963355  -3.141025  4.153530
H    -3.527366  -5.298969  6.758441
H    -1.534802  -4.375499  7.735203
H    -0.413927  -3.697640  6.615371
H    -4.340686  -4.283888  5.622955
O    0.501168  -1.744507  0.398085
H    0.686653  -2.502552  0.990479
Pb    1.685049  2.412700  0.377117
