28
Energy: -606654.690817 eV PBE+vdW (tier 2 basis)
N    0.518907  -0.810756  -0.598552
C    -0.130666  -0.321430  0.662800
C    0.312525  1.126708  0.914531
O    1.306598  1.627989  0.332585
H    0.877155  -1.762668  -0.461153
H    -0.178289  -0.890477  -1.348450
H    -1.222754  -0.308536  0.511233
C    0.226410  -1.208864  1.890284
C    -0.435184  -2.611690  1.937368
C    -1.657498  -2.701893  2.873120
N    -2.087338  -4.095802  3.002011
C    -3.298287  -4.517539  3.438857
N    -4.182826  -3.649195  3.943171
N    -3.614581  -5.808889  3.325771
H    -0.018669  -0.654579  2.809041
H    1.322408  -1.313013  1.917031
H    0.329425  -3.313042  2.301995
H    -0.718253  -2.965296  0.933479
H    -2.502632  -2.118499  2.476857
H    -1.385726  -2.286348  3.859020
H    -1.361846  -4.806868  2.966088
H    -5.137162  -3.941482  4.132756
H    -4.401787  -6.206263  3.829557
H    -3.087921  -6.441749  2.733312
H    -3.886237  -2.788151  4.386881
O    -0.299849  1.891487  1.763237
H    -1.094204  1.508291  2.189168
Pb    2.389281  0.738556  -1.427996
