28
Energy: -606655.975799 eV PBE+vdW (tier 2 basis)
N    -0.618707  0.287978  0.288034
C    -0.219436  0.100416  1.747392
C    1.287722  0.375618  1.870170
O    1.894020  0.075062  2.945508
H    -1.618527  0.524846  0.199640
H    -0.062297  1.050158  -0.137752
H    -0.680325  0.951160  2.279386
C    -0.777363  -1.185446  2.379869
C    -0.423202  -2.539647  1.737033
C    -0.978755  -3.692065  2.605031
N    -0.714122  -5.016544  2.035289
C    -1.579447  -6.059753  1.981823
N    -1.095524  -7.303936  1.974952
N    -2.900347  -5.863980  1.918086
H    -1.871036  -1.068949  2.434789
H    -0.432209  -1.163057  3.424655
H    0.669109  -2.650751  1.645008
H    -0.844829  -2.634314  0.722841
H    -2.060911  -3.577236  2.742211
H    -0.535257  -3.639922  3.612330
H    0.264614  -5.276704  1.947750
H    -1.671688  -8.093082  1.697469
H    -3.545363  -6.638790  2.038009
H    -3.301669  -4.986244  1.614752
H    -0.156596  -7.519007  2.292770
O    1.877585  1.005180  0.924819
H    -0.447760  -0.559980  -0.272577
Pb    3.819325  1.281991  2.292711
