28
Energy: -606655.627940 eV PBE+vdW (tier 2 basis)
N    0.394000  0.128257  -0.008686
C    -0.184094  0.237904  1.376203
C    0.923059  0.677531  2.325464
O    2.144164  0.662564  2.021922
H    0.077046  -0.748476  -0.441152
H    0.010134  0.872197  -0.604901
H    -0.942982  1.035121  1.381243
C    -0.835721  -1.117526  1.807725
C    -1.749716  -1.145725  3.051990
C    -3.185829  -0.634350  2.826944
N    -3.987628  -0.839152  4.035167
C    -5.298361  -1.169240  4.083016
N    -5.816149  -1.612242  5.231260
N    -6.067394  -1.079479  2.991309
H    -0.031109  -1.855058  1.951394
H    -1.417059  -1.459007  0.935793
H    -1.284312  -0.609004  3.891122
H    -1.807754  -2.198233  3.363665
H    -3.654961  -1.204806  2.012734
H    -3.194640  0.431725  2.541850
H    -3.547900  -0.640020  4.929156
H    -5.232649  -1.952605  5.987908
H    -7.000477  -1.480477  2.985465
H    -5.854190  -0.430653  2.243398
H    -6.820192  -1.647782  5.378511
O    0.513764  1.063969  3.494915
H    1.256987  1.333132  4.085518
Pb    2.915965  0.265433  -0.089933
