28
Energy: -606655.495917 eV PBE+vdW (tier 2 basis)
N    1.264769  -0.140789  -0.112011
C    0.326642  0.358001  0.949020
C    1.163833  0.821072  2.149622
O    2.411695  0.943657  2.083814
H    1.281052  -1.169456  -0.097999
H    0.900671  0.107691  -1.039258
H    -0.133682  1.282974  0.557412
C    -0.799997  -0.672555  1.262449
C    -2.053708  -0.136283  1.991869
C    -3.210807  -1.162166  1.940075
N    -4.403918  -0.648725  2.610196
C    -5.331368  -1.397148  3.259137
N    -5.302735  -2.732345  3.196960
N    -6.259570  -0.779474  3.992039
H    -0.370739  -1.525467  1.811417
H    -1.124902  -1.058002  0.283664
H    -2.384346  0.805905  1.526046
H    -1.863980  0.066987  3.061159
H    -2.904163  -2.086115  2.449594
H    -3.430138  -1.410429  0.888106
H    -4.690139  0.301198  2.387845
H    -4.896057  -3.221771  2.408420
H    -7.093973  -1.265653  4.306595
H    -6.164992  0.190652  4.272657
H    -5.890251  -3.287864  3.812174
O    0.608227  1.153421  3.272087
H    -0.366364  1.035483  3.284201
Pb    3.668940  0.626199  0.231713
