28
Energy: -606655.805838 eV PBE+vdW (tier 2 basis)
N    -0.442158  2.419427  2.288826
C    1.034733  2.177292  2.170308
C    1.433025  2.356731  0.707636
O    0.725830  2.999539  -0.113054
H    -0.949457  1.527676  2.214469
H    -0.653568  2.769761  3.231172
H    1.524446  3.039942  2.661147
C    1.579622  0.922002  2.893566
C    1.164541  -0.470707  2.383625
C    1.829697  -1.557106  3.256375
N    1.489943  -2.907267  2.805313
C    2.240488  -4.013217  3.027323
N    1.910504  -5.155018  2.417787
N    3.316325  -3.963179  3.818986
H    1.305306  1.035534  3.953793
H    2.675858  1.013769  2.867059
H    1.470170  -0.615827  1.336930
H    0.069612  -0.600622  2.429319
H    1.536159  -1.413384  4.310124
H    2.921821  -1.446706  3.193121
H    0.533032  -3.078874  2.510774
H    2.304030  -6.043188  2.712791
H    3.968510  -4.741033  3.853884
H    3.415861  -3.263317  4.544554
H    1.278916  -5.177131  1.625078
O    2.588317  1.867039  0.387091
H    2.857166  2.093310  -0.535057
Pb    -1.269733  3.964554  0.470062
