28
Energy: -606656.371452 eV PBE+vdW (tier 2 basis)
N    1.841014  -0.743429  0.229989
C    1.068573  -0.560387  1.533516
C    1.955382  0.263173  2.484405
O    1.596250  0.418009  3.692971
H    1.212271  -0.854383  -0.578068
H    2.449323  0.078344  0.063585
H    0.216830  0.095369  1.285036
C    0.557077  -1.886418  2.119915
C    -0.527928  -2.588200  1.277370
C    -1.100009  -3.821308  2.005800
N    -2.114335  -4.490446  1.189429
C    -3.156068  -5.213943  1.661374
N    -4.118612  -5.593713  0.817074
N    -3.243434  -5.522209  2.959920
H    0.152131  -1.631664  3.110406
H    1.411210  -2.558677  2.305538
H    -0.114733  -2.914270  0.307591
H    -1.350004  -1.888442  1.062528
H    -1.577521  -3.499640  2.942197
H    -0.285626  -4.519581  2.262309
H    -1.929986  -4.583151  0.194655
H    -4.228166  -5.169726  -0.097463
H    -4.097940  -5.919400  3.338439
H    -2.422497  -5.580168  3.550438
H    -4.790167  -6.311563  1.070657
O    3.007603  0.822807  2.022180
H    2.458065  -1.569436  0.263747
Pb    3.385300  1.889449  4.139466
