28
Energy: -606655.479154 eV PBE+vdW (tier 2 basis)
N    1.470383  -0.768895  -0.699073
C    0.274092  -0.127805  -0.054929
C    0.735275  0.582639  1.219315
O    1.807047  0.276490  1.798345
H    1.223494  -1.709190  -1.030919
H    1.727344  -0.248341  -1.547335
H    -0.124308  0.634808  -0.743717
C    -0.839181  -1.186034  0.224429
C    -2.192991  -0.643591  0.728561
C    -3.279408  -1.743417  0.698782
N    -4.546719  -1.249168  1.236308
C    -5.782171  -1.644065  0.841203
N    -6.846117  -0.960160  1.267534
N    -5.939467  -2.681822  0.012484
H    -0.449395  -1.941274  0.925675
H    -0.999883  -1.692303  -0.740985
H    -2.531615  0.194001  0.098065
H    -2.095746  -0.275040  1.762019
H    -2.935756  -2.625487  1.264539
H    -3.452109  -2.053961  -0.340949
H    -4.513593  -0.730234  2.109614
H    -6.763565  -0.032242  1.668569
H    -6.843485  -2.868087  -0.411994
H    -5.260186  -3.431806  -0.038147
H    -7.784307  -1.341021  1.189064
O    0.020348  1.512598  1.775470
H    -0.776577  1.778806  1.271440
Pb    3.503593  -0.864396  0.831632
