28
Energy: -606656.167781 eV PBE+vdW (tier 2 basis)
N    1.331489  -1.773072  0.422289
C    0.812647  -0.496964  1.076064
C    2.020965  0.352235  1.500297
O    3.168889  0.082742  1.003460
H    0.632884  -2.174321  -0.221843
H    1.567951  -2.497573  1.115926
H    0.366178  0.082412  0.248981
C    -0.303275  -0.743548  2.105278
C    0.009259  -1.596055  3.349541
C    -1.268022  -1.759366  4.200387
N    -1.036457  -2.599002  5.376764
C    -1.808427  -2.604448  6.490276
N    -1.412286  -3.311415  7.551972
N    -2.935173  -1.887622  6.545426
H    -1.153814  -1.176655  1.555213
H    -0.637831  0.258400  2.412535
H    0.798025  -1.130256  3.958480
H    0.365464  -2.601374  3.063481
H    -2.071283  -2.182934  3.573243
H    -1.598356  -0.769906  4.548255
H    -0.421172  -3.400035  5.267734
H    -2.046090  -3.511506  8.319352
H    -0.464815  -3.660780  7.641190
H    -3.428525  -1.767871  7.425018
H    -3.439526  -1.615902  5.709982
O    1.842270  1.365620  2.245614
H    2.194909  -1.574630  -0.112911
Pb    4.050124  2.126819  1.876993
