28
Energy: -606655.424819 eV PBE+vdW (tier 2 basis)
N    1.811399  -1.109056  0.474646
C    0.377141  -0.708491  0.675257
C    0.330092  0.803343  0.923675
O    1.340499  1.441217  1.313013
H    2.007539  -1.969686  0.999550
H    1.968512  -1.356499  -0.510384
H    -0.172212  -0.908899  -0.259064
C    -0.276180  -1.530464  1.832667
C    -1.781584  -1.287854  2.062697
C    -2.435366  -2.183768  3.135453
N    -2.691179  -3.553047  2.670091
C    -3.040979  -4.576906  3.495939
N    -3.136084  -4.390884  4.814709
N    -3.247370  -5.787556  2.972958
H    0.276943  -1.332738  2.765013
H    -0.111266  -2.588051  1.573242
H    -2.339943  -1.396317  1.117102
H    -1.951067  -0.259398  2.413539
H    -3.376659  -1.696559  3.437152
H    -1.786706  -2.235281  4.022053
H    -3.043159  -3.643739  1.719905
H    -3.261637  -5.180803  5.441296
H    -3.683542  -6.529617  3.511849
H    -2.987647  -6.012556  2.019262
H    -3.295062  -3.475171  5.218238
O    -0.758923  1.490259  0.766495
H    -1.523305  0.991915  0.409180
Pb    3.469741  0.720604  1.123466
