28
Energy: -606656.181491 eV PBE+vdW (tier 2 basis)
N    0.686033  -0.627262  0.223152
C    0.167818  0.573546  1.008780
C    1.388061  1.352003  1.530701
O    2.546518  1.070781  1.068854
H    0.014044  -0.933042  -0.495384
H    0.877373  -1.433645  0.837056
H    -0.294169  1.237964  0.258143
C    -0.881522  0.195651  2.068835
C    -2.223392  -0.287654  1.477076
C    -3.415320  -0.269561  2.462112
N    -3.483052  -1.382963  3.415882
C    -4.488833  -2.289726  3.496569
N    -4.722979  -2.902381  4.660137
N    -5.231519  -2.592392  2.428125
H    -1.047583  1.115108  2.650068
H    -0.451000  -0.538309  2.769751
H    -2.130845  -1.296937  1.045282
H    -2.507122  0.386825  0.653201
H    -4.347908  -0.260756  1.885069
H    -3.414850  0.671330  3.032904
H    -2.917574  -1.304010  4.255446
H    -5.313228  -3.727069  4.712813
H    -4.402083  -2.519747  5.542865
H    -6.090081  -3.125689  2.524113
H    -4.948381  -2.356788  1.485980
O    1.213750  2.302456  2.355265
H    1.579127  -0.386229  -0.242745
Pb    3.486714  2.929495  2.261952
