28
Energy: -606655.535918 eV PBE+vdW (tier 2 basis)
N    2.460767  -0.776582  2.054836
C    1.002408  -0.697026  1.713051
C    0.774135  0.507666  0.782807
O    1.720483  1.236229  0.392217
H    2.595871  -0.534588  3.044236
H    2.791640  -1.743022  1.962546
H    0.764765  -1.580166  1.093574
C    0.072976  -0.684639  2.958170
C    -0.020471  -2.031940  3.703384
C    -1.009695  -1.952963  4.885040
N    -1.128240  -3.245668  5.560578
C    -2.212951  -3.678047  6.247111
N    -2.275275  -4.957786  6.622350
N    -3.224679  -2.847478  6.521209
H    -0.939267  -0.396268  2.633118
H    0.398696  0.123721  3.634287
H    0.970124  -2.330715  4.083583
H    -0.351316  -2.819928  3.009827
H    -2.006411  -1.677984  4.510465
H    -0.687765  -1.170349  5.592864
H    -0.281351  -3.792683  5.685417
H    -2.944834  -5.271905  7.318119
H    -4.101775  -3.207589  6.885719
H    -3.088873  -1.846009  6.593431
H    -1.677277  -5.666945  6.212472
O    -0.400459  0.805910  0.326709
H    -1.131982  0.221899  0.616289
Pb    3.912756  0.839853  0.692595
