28
Energy: -606655.583916 eV PBE+vdW (tier 2 basis)
N    2.453198  -0.775390  1.660361
C    0.954833  -0.735390  1.769787
C    0.451716  0.607020  1.238345
O    1.205610  1.491019  0.753143
H    2.859369  -0.817148  2.603961
H    2.752552  -1.642191  1.200326
H    0.545429  -1.482999  1.069095
C    0.441060  -1.026871  3.207271
C    0.504664  -2.500600  3.674181
C    -0.783599  -3.301862  3.377555
N    -0.742689  -4.674226  3.883504
C    -1.152224  -5.119867  5.093596
N    -0.819158  -6.354634  5.476262
N    -1.859563  -4.335558  5.917259
H    -0.594177  -0.663234  3.270157
H    1.013031  -0.390573  3.901574
H    0.667198  -2.496531  4.760745
H    1.373103  -3.026869  3.247530
H    -0.977727  -3.374380  2.298337
H    -1.652036  -2.772626  3.793181
H    -0.423198  -5.389614  3.238156
H    -1.284239  -6.810097  6.255608
H    -2.082667  -4.653169  6.855724
H    -2.426423  -3.574182  5.564381
H    -0.124366  -6.903381  4.981442
O    -0.832653  0.758795  1.299632
H    -1.139116  1.617328  0.922200
Pb    3.448072  1.236230  0.472687
