28
Energy: -606654.640292 eV PBE+vdW (tier 2 basis)
N    1.284655  -1.825515  0.654223
C    0.343980  -0.929219  1.403853
C    1.073983  0.375460  1.751364
O    2.324510  0.476467  1.684049
H    1.229247  -2.780319  1.027021
H    0.997315  -1.900782  -0.328608
H    -0.490990  -0.663134  0.734859
C    -0.202285  -1.601990  2.698931
C    -1.272453  -2.705196  2.501421
C    -2.726125  -2.182910  2.522504
N    -3.722077  -3.244247  2.367053
C    -4.646935  -3.629822  3.279868
N    -5.761703  -4.230307  2.860594
N    -4.456735  -3.414381  4.586850
H    -0.600407  -0.817943  3.361482
H    0.659618  -2.015171  3.246368
H    -1.145871  -3.437188  3.310906
H    -1.099443  -3.268771  1.570410
H    -2.894349  -1.449388  1.717710
H    -2.930268  -1.656609  3.464747
H    -3.863601  -3.607054  1.428634
H    -6.080473  -4.165960  1.899289
H    -5.216951  -3.548355  5.246941
H    -3.531814  -3.308153  4.983893
H    -6.357163  -4.746029  3.502123
O    0.434638  1.427339  2.157322
H    -0.542286  1.354621  2.175379
Pb    3.713985  -0.997444  0.704815
