28
Energy: -606656.248348 eV PBE+vdW (tier 2 basis)
N    -0.440587  1.205840  2.033811
C    0.484108  0.019434  2.296101
C    1.821627  0.316531  1.596000
O    2.715741  -0.583969  1.545659
H    -0.995691  1.077761  1.173817
H    -1.098660  1.364032  2.810340
H    0.704058  0.047021  3.376751
C    -0.158496  -1.330622  1.924870
C    -1.405596  -1.680103  2.764707
C    -2.124323  -2.990944  2.374133
N    -1.539730  -4.194098  2.972184
C    -2.242500  -5.289262  3.349705
N    -1.642566  -6.221945  4.095834
N    -3.524759  -5.434002  3.003930
H    0.635439  -2.079962  2.057121
H    -0.402554  -1.332793  0.849474
H    -2.167544  -0.893213  2.647571
H    -1.155206  -1.709035  3.836298
H    -2.174432  -3.084981  1.276469
H    -3.155109  -2.918572  2.743728
H    -0.531262  -4.305238  2.959266
H    -0.798536  -6.026226  4.621766
H    -4.099413  -6.151367  3.436039
H    -3.920784  -4.967654  2.196306
H    -2.054833  -7.141338  4.219957
O    2.026517  1.488287  1.125954
H    0.125714  2.063661  1.901215
Pb    4.273376  0.890754  0.548995
