28
Energy: -606656.260192 eV PBE+vdW (tier 2 basis)
N    -0.439825  0.119788  0.042883
C    -0.015356  0.065150  1.508135
C    1.444037  0.541936  1.580197
O    1.963728  1.083406  0.542403
H    -1.463299  0.205882  -0.049994
H    -0.153746  -0.728796  -0.470431
H    -0.612677  0.839631  2.017936
C    -0.326064  -1.324968  2.109678
C    -0.545343  -1.329338  3.635937
C    -0.964251  -2.727994  4.129276
N    -1.239133  -2.716410  5.567331
C    -2.073573  -3.561040  6.214678
N    -2.405522  -3.304497  7.483248
N    -2.586964  -4.626785  5.590460
H    0.466774  -2.033585  1.824879
H    -1.251997  -1.680166  1.627999
H    -1.333210  -0.607331  3.899243
H    0.374807  -1.013277  4.148685
H    -0.177194  -3.463042  3.890449
H    -1.885051  -3.040139  3.615178
H    -0.644660  -2.140805  6.156271
H    -2.841528  -4.010913  8.067475
H    -2.265154  -2.390890  7.899791
H    -3.336342  -5.163159  6.016990
H    -2.127107  -5.052564  4.794781
O    2.095308  0.438248  2.665463
H    0.003332  0.922945  -0.436234
Pb    3.964014  1.572710  1.732292
