28
Energy: -606656.258222 eV PBE+vdW (tier 2 basis)
N    0.984930  -1.747417  -0.067938
C    0.457681  -0.676553  0.885066
C    1.590228  -0.341854  1.870933
O    2.763734  -0.796626  1.640982
H    0.540279  -1.693021  -0.995604
H    0.827997  -2.698653  0.299139
H    0.327629  0.229366  0.268890
C    -0.882649  -1.066778  1.534540
C    -2.035529  -1.236009  0.523886
C    -3.396480  -1.631463  1.127626
N    -4.088500  -0.506447  1.769529
C    -5.182545  -0.646302  2.562232
N    -5.736631  0.442316  3.102599
N    -5.678903  -1.855420  2.836936
H    -1.114082  -0.272174  2.258020
H    -0.746434  -1.987894  2.125083
H    -1.802703  -2.036675  -0.195639
H    -2.152863  -0.319999  -0.078530
H    -3.256164  -2.423631  1.877737
H    -4.012809  -2.045330  0.313134
H    -4.020030  0.390943  1.295823
H    -6.651290  0.407408  3.541607
H    -5.277068  1.345286  3.081285
H    -6.407137  -1.970160  3.535561
H    -5.500908  -2.656700  2.243351
O    1.356812  0.421735  2.858389
H    2.008152  -1.636925  -0.186341
Pb    3.634283  0.437980  3.496703
