28
Energy: -606656.370344 eV PBE+vdW (tier 2 basis)
N    3.126448  0.041239  2.208874
C    2.126270  -0.708132  3.084828
C    2.485736  -2.203387  3.022585
O    3.587471  -2.555209  2.478129
H    3.255908  1.014414  2.520333
H    2.827247  0.064688  1.221957
H    2.343705  -0.394071  4.119680
C    0.664595  -0.387214  2.730816
C    0.234382  1.070472  2.996457
C    -1.273987  1.271225  2.721321
N    -1.691306  2.673908  2.794181
C    -2.636906  3.200637  3.607089
N    -3.268139  4.315688  3.233198
N    -2.939748  2.625840  4.776767
H    0.056754  -1.075430  3.336739
H    0.475166  -0.665284  1.680449
H    0.793928  1.767665  2.351152
H    0.461800  1.351576  4.036322
H    -1.880362  0.687082  3.425266
H    -1.524702  0.896455  1.716986
H    -1.425431  3.262810  2.009719
H    -3.284471  4.626464  2.267481
H    -3.794925  4.873310  3.898629
H    -2.297913  2.003091  5.249271
H    -3.757141  2.919862  5.301857
O    1.707908  -3.052801  3.558460
H    4.044614  -0.437045  2.231631
Pb    3.183103  -4.836854  3.103822
