14
Energy: -233948.597046 eV PBE+vdW (tier 2 basis)
N    -0.152694  0.129421  0.068082
C    -0.086817  -0.067624  1.579340
C    1.401995  -0.068969  1.965677
O    2.269425  0.216322  1.069788
H    -0.339773  -0.760366  -0.415186
H    0.779642  0.472170  -0.240370
H    -0.883289  0.796155  -0.212450
H    -0.526611  0.835329  2.029506
C    -0.856779  -1.306377  2.015839
H    -1.917023  -1.222977  1.746415
H    -0.797713  -1.402018  3.105688
H    -0.441370  -2.221070  1.570441
O    1.714187  -0.321267  3.166878
Ba    4.171820  0.029268  2.846352
