35
Energy: -172331.633509 eV PBE+vdW (tier 2 basis)
C    -0.035132  -0.751220  0.497243
C    -0.289967  -0.482706  1.938289
O    0.648521  -0.556889  2.822429
H    0.301734  0.183319  0.017074
H    0.752285  -1.509024  0.398026
H    -0.918482  -1.114796  -0.039794
N    -1.490116  -0.160929  2.449725
C    -2.853502  -0.190355  1.872818
C    -3.239490  -1.654587  1.473212
O    -2.857968  -2.079813  0.379371
H    -1.451265  0.019637  3.454615
H    -3.486084  0.106198  2.718596
C    -3.039108  0.799074  0.702765
C    -4.464260  0.940182  0.122543
C    -5.512141  1.598630  1.044961
C    -6.595398  2.415089  0.337183
N    -7.558522  1.587001  -0.510009
H    -2.382660  0.505065  -0.124432
H    -2.690244  1.781245  1.055727
H    -4.813874  -0.037669  -0.243970
H    -4.335592  1.564359  -0.775828
H    -5.020134  2.332538  1.702941
H    -5.981348  0.865053  1.720184
H    -6.162663  3.157286  -0.345718
H    -7.224782  2.944092  1.062644
H    -8.265505  2.195504  -0.951579
H    -8.070730  0.894364  0.055118
H    -7.081643  1.082196  -1.270243
N    -3.970593  -2.404441  2.323437
C    -4.377923  -2.125914  3.697787
H    -4.137140  -3.352822  1.979517
H    -3.541163  -2.248033  4.402072
H    -5.152774  -2.848875  3.974021
H    -4.801017  -1.119643  3.802133
Cd    2.770729  -0.357624  2.610626
