35
Energy: -172332.234683 eV PBE+vdW (tier 2 basis)
C    -0.003310  -0.014858  0.311948
C    -0.197521  -0.160844  1.772276
O    0.821868  -0.082584  2.546826
H    0.704419  -0.805029  0.001790
H    0.496216  0.934635  0.073623
H    -0.926261  -0.136270  -0.262176
N    -1.413105  -0.426170  2.326266
C    -2.667686  0.302127  2.102792
C    -2.534646  1.659029  2.858098
O    -1.767606  1.794904  3.883799
H    -1.357118  -0.861678  3.250404
H    -2.776000  0.499327  1.026485
C    -3.845062  -0.568304  2.635386
C    -5.276694  -0.177797  2.207785
C    -5.725287  -0.682540  0.815750
C    -6.299857  -2.103118  0.753987
N    -7.775265  -2.169690  1.139977
H    -3.789280  -0.573245  3.734966
H    -3.626848  -1.597832  2.312236
H    -5.412174  0.912162  2.256511
H    -5.955565  -0.554591  2.988136
H    -4.880706  -0.669226  0.110184
H    -6.454611  0.018075  0.380388
H    -5.782317  -2.807634  1.417557
H    -6.253374  -2.502289  -0.265985
H    -8.126648  -3.138591  1.081932
H    -8.358003  -1.602282  0.505502
H    -7.955815  -1.841840  2.099551
N    -3.265022  2.682475  2.465947
C    -3.273595  4.012975  3.096001
H    -3.891790  2.543532  1.675801
H    -3.725209  4.720910  2.395865
H    -2.248748  4.322961  3.324979
H    -3.858602  3.988666  4.024406
Cd    0.227446  1.084979  4.253152
