35
Energy: -172331.887082 eV PBE+vdW (tier 2 basis)
C    0.604407  -0.444540  0.275166
C    0.126145  0.077547  1.591809
O    0.897133  0.733900  2.399677
H    1.432582  -1.150942  0.439307
H    0.963989  0.392279  -0.345201
H    -0.174154  -0.966779  -0.291658
N    -1.126136  -0.149766  1.955219
C    -1.778847  0.168226  3.237013
C    -2.328938  -1.201198  3.728503
O    -2.858333  -1.928176  2.885080
H    -1.685137  -0.770245  1.360023
H    -1.023833  0.582008  3.919090
C    -2.957246  1.156601  3.001436
C    -3.727661  1.529346  4.281907
C    -5.115235  2.174437  4.063473
C    -5.090060  3.608772  3.536448
N    -6.494732  4.200180  3.515134
H    -3.639433  0.685622  2.276266
H    -2.537558  2.049157  2.514842
H    -3.110519  2.178554  4.922405
H    -3.920638  0.621116  4.870943
H    -5.628542  2.166384  5.037798
H    -5.712076  1.538367  3.390217
H    -4.717624  3.686001  2.507681
H    -4.494519  4.273480  4.175115
H    -6.493607  5.169748  3.163796
H    -6.912742  4.219041  4.457911
H    -7.131422  3.657590  2.912269
N    -2.226582  -1.527630  5.037029
C    -2.705155  -2.789084  5.580382
H    -1.701451  -0.910673  5.654454
H    -1.878716  -3.517508  5.656115
H    -3.471929  -3.204305  4.918228
H    -3.093533  -2.620600  6.592954
Cd    2.920993  1.336089  1.958930
