35
Energy: -172331.891941 eV PBE+vdW (tier 2 basis)
C    0.740519  -0.649240  1.496077
C    0.089988  0.261866  2.477152
O    0.553753  0.483238  3.652722
H    1.832271  -0.597302  1.599226
H    0.447812  -1.688924  1.718023
H    0.480359  -0.430464  0.455342
N    -1.081964  0.866901  2.212219
C    -2.010940  0.550805  1.121480
C    -1.738202  1.473203  -0.132111
O    -1.706200  0.910666  -1.220600
H    -1.420384  1.474148  2.964279
H    -1.786840  -0.457145  0.757023
C    -3.483384  0.608519  1.585810
C    -4.478503  0.180897  0.489106
C    -5.929468  0.091433  1.005891
C    -6.876719  -0.358153  -0.107889
N    -8.317044  -0.463822  0.374698
H    -3.724167  1.622700  1.944835
H    -3.573583  -0.067767  2.450387
H    -4.173420  -0.797216  0.085959
H    -4.435799  0.885755  -0.354611
H    -6.248788  1.072236  1.393448
H    -5.980263  -0.620086  1.845632
H    -6.616130  -1.350908  -0.495892
H    -6.892148  0.346262  -0.948986
H    -8.942224  -0.767385  -0.387743
H    -8.675850  0.438771  0.719800
H    -8.418168  -1.147386  1.139623
N    -1.568941  2.796978  0.050279
C    -1.416426  3.727024  -1.069308
H    -1.747301  3.193631  0.969630
H    -0.853693  4.600650  -0.722567
H    -2.393584  4.065129  -1.445167
H    -0.888187  3.218951  -1.884199
Cd    2.570876  0.463366  4.472325
