35
Energy: -172331.773629 eV PBE+vdW (tier 2 basis)
C    0.853820  0.547906  0.557054
C    0.289325  -0.103128  1.777752
O    1.004235  -0.342624  2.833217
H    1.675815  -0.066589  0.158843
H    1.244695  1.545081  0.817704
H    0.116147  0.680651  -0.241970
N    -0.981309  -0.469202  1.785345
C    -1.714437  -1.190393  2.841154
C    -2.469183  -2.308574  2.075817
O    -3.008924  -1.994311  1.010206
H    -1.518360  -0.363036  0.917482
H    -0.985263  -1.602575  3.551785
C    -2.703936  -0.223340  3.552683
C    -3.641107  -0.867743  4.602665
C    -5.043056  -1.278102  4.096004
C    -6.093176  -0.166385  4.013585
N    -6.745343  0.135833  5.360585
H    -3.285813  0.296321  2.776347
H    -2.081181  0.542064  4.035326
H    -3.732132  -0.161666  5.442270
H    -3.157940  -1.748782  5.049721
H    -5.437077  -2.098840  4.715761
H    -4.978671  -1.700584  3.083074
H    -6.919750  -0.451590  3.352479
H    -5.685586  0.787149  3.654525
H    -7.238774  -0.689639  5.732717
H    -7.444526  0.889306  5.271953
H    -6.066376  0.435337  6.074395
N    -2.520352  -3.547024  2.608219
C    -3.166515  -4.671754  1.944621
H    -1.963760  -3.742840  3.438176
H    -2.431278  -5.254264  1.364209
H    -3.930337  -4.298389  1.254658
H    -3.599594  -5.335861  2.702506
Cd    3.028091  0.317294  3.129841
