35
Energy: -172331.913715 eV PBE+vdW (tier 2 basis)
C    0.052440  -0.404844  -0.393749
C    0.025301  -0.308966  1.090258
O    1.074016  -0.530770  1.812699
H    -0.871218  -0.086400  -0.883896
H    0.249603  -1.449055  -0.682016
H    0.875688  0.210695  -0.787019
N    -1.082485  -0.044074  1.793368
C    -2.492960  -0.065291  1.346976
C    -3.242802  1.047678  2.157653
O    -3.952512  0.724619  3.116725
H    -0.937346  -0.044245  2.807661
H    -2.519551  0.180201  0.277928
C    -3.166440  -1.424668  1.597573
C    -4.576032  -1.515549  0.971380
C    -5.509682  -2.550082  1.645950
C    -6.598548  -1.982557  2.550447
N    -6.067353  -1.349671  3.833559
H    -3.196157  -1.590983  2.684448
H    -2.525263  -2.213373  1.179101
H    -4.466976  -1.776051  -0.089502
H    -5.068455  -0.530376  0.976183
H    -4.930796  -3.321058  2.178684
H    -6.056392  -3.100164  0.867423
H    -7.293591  -2.768820  2.868761
H    -7.179460  -1.199485  2.046962
H    -5.376181  -0.599179  3.643998
H    -6.836892  -0.938090  4.381302
H    -5.617123  -2.053206  4.434812
N    -3.103307  2.347013  1.804973
C    -2.505402  2.941043  0.621336
H    -3.661093  2.978719  2.387879
H    -2.010748  3.877989  0.914601
H    -3.279970  3.198584  -0.119306
H    -1.768852  2.276237  0.164268
Cd    3.177863  -0.487449  1.416567
