35
Energy: -172331.499934 eV PBE+vdW (tier 2 basis)
C    -0.195990  -1.652967  -0.232967
C    -0.622079  -1.649899  1.207273
O    -0.830420  -2.668601  1.861675
H    -0.532229  -0.754315  -0.765862
H    -0.579265  -2.553410  -0.723636
H    0.903739  -1.695092  -0.269257
N    -0.783209  -0.421152  1.845573
C    -0.919805  -0.371733  3.284006
C    -2.364163  -0.847644  3.701309
O    -2.459721  -1.294879  4.890718
H    -0.569323  0.432391  1.332470
H    -0.264773  -1.129463  3.737452
C    -0.615262  1.027755  3.862975
C    0.877807  1.425122  3.798729
C    1.092230  2.860560  4.321412
C    2.480011  3.470863  4.114572
N    3.528385  3.004775  5.122077
H    -0.947929  1.038334  4.910502
H    -1.229151  1.778004  3.338269
H    1.244059  1.365104  2.761720
H    1.465519  0.695188  4.378454
H    0.800604  2.939892  5.381498
H    0.408893  3.539279  3.788119
H    2.894972  3.250838  3.122854
H    2.438870  4.560423  4.229963
H    4.432583  3.470075  4.945779
H    3.699539  1.990907  5.081768
H    3.255122  3.238432  6.088118
N    -3.347849  -0.735206  2.834511
C    -4.738760  -1.126842  3.041446
H    -3.080468  -0.393026  1.910897
H    -5.324750  -0.810372  2.170793
H    -5.167977  -0.618083  3.917565
H    -4.839902  -2.223404  3.104758
Cd    -3.954586  -2.462084  5.930966
