35
Energy: -172331.847495 eV PBE+vdW (tier 2 basis)
C    0.312579  -1.295810  1.181064
C    -0.365830  0.023728  1.389248
O    0.127433  1.099977  1.035180
H    0.109066  -1.619464  0.146780
H    -0.029173  -2.082723  1.862080
H    1.396958  -1.160105  1.262377
N    -1.613997  0.000140  2.001231
C    -2.362179  1.151731  2.451378
C    -2.909270  2.018712  1.250141
O    -4.176136  2.200028  1.300498
H    -1.997812  -0.915336  2.228754
H    -3.261955  0.761601  2.944575
C    -1.645274  2.126059  3.444969
C    -1.352922  1.585009  4.859625
C    -0.138230  0.643360  4.994299
C    0.612683  0.713115  6.327286
N    -0.160402  0.168349  7.525616
H    -2.313546  2.992906  3.550242
H    -0.720956  2.494194  2.978312
H    -2.262167  1.130458  5.284809
H    -1.166566  2.490954  5.460621
H    0.625250  0.922037  4.251063
H    -0.405026  -0.401603  4.769981
H    0.879906  1.744852  6.589273
H    1.536053  0.123297  6.283833
H    0.412728  0.231238  8.381927
H    -0.410234  -0.824206  7.406034
H    -1.028228  0.691064  7.709384
N    -2.071987  2.490891  0.359425
C    -2.411796  3.317640  -0.792887
H    -1.081621  2.178365  0.500803
H    -1.489612  3.532723  -1.346282
H    -2.824968  4.291806  -0.483141
H    -3.079039  2.786500  -1.492145
Cd    -5.543582  3.281989  0.022901
