35
Energy: -172332.854708 eV PBE+vdW (tier 2 basis)
C    -0.830539  -1.566890  0.239727
C    -0.593786  -0.188468  0.758965
O    0.596624  0.272098  0.644967
H    -1.842753  -1.939091  0.431619
H    -0.100466  -2.246401  0.704870
H    -0.626256  -1.586272  -0.840884
N    -1.625153  0.468039  1.317905
C    -1.706348  1.711348  2.140091
C    -1.657225  2.984589  1.259541
O    -0.567353  3.460581  0.773168
H    -2.500190  -0.050573  1.274035
H    -2.721163  1.661214  2.557048
C    -0.709802  1.733278  3.327238
C    -1.133156  2.545290  4.575938
C    -2.211023  1.864078  5.455311
C    -2.082268  2.059794  6.969343
N    -2.456185  3.449850  7.477663
H    0.267948  2.123018  2.997280
H    -0.523519  0.690732  3.621675
H    -1.438138  3.562901  4.285417
H    -0.213998  2.668225  5.168577
H    -2.140578  0.771666  5.333341
H    -3.231220  2.125593  5.133033
H    -1.058605  1.877759  7.320671
H    -2.750218  1.370767  7.500152
H    -2.365925  3.490978  8.505644
H    -3.433390  3.691598  7.256109
H    -1.853266  4.192441  7.096989
N    -2.788760  3.620545  1.029867
C    -2.940980  4.826138  0.200451
H    -3.642269  3.229697  1.424681
H    -3.725476  5.452274  0.637173
H    -3.238599  4.537726  -0.816785
H    -1.997114  5.375302  0.168080
Cd    1.158512  2.283999  0.452925
