35
Energy: -172331.751069 eV PBE+vdW (tier 2 basis)
C    -2.646201  0.646998  0.412042
C    -2.020997  0.475665  1.763386
O    -0.913549  0.945071  2.059437
H    -3.345033  1.499122  0.465587
H    -3.211906  -0.232907  0.083428
H    -1.871011  0.899090  -0.317743
N    -2.755795  -0.228708  2.702502
C    -2.333485  -0.666393  4.016801
C    -1.999696  0.511232  4.997651
O    -2.610649  0.384499  6.120091
H    -3.666133  -0.571127  2.396366
H    -3.230846  -1.114087  4.464983
C    -1.261415  -1.818458  4.091428
C    0.129432  -1.635038  3.470939
C    1.076638  -2.817676  3.812211
C    0.962793  -4.090778  2.962148
N    1.947671  -4.113249  1.795483
H    -1.773774  -2.686164  3.647834
H    -1.161985  -2.047111  5.164345
H    0.604710  -0.723049  3.857497
H    0.059641  -1.496555  2.382144
H    0.916663  -3.119363  4.857160
H    2.116732  -2.457225  3.788795
H    -0.031002  -4.236357  2.521196
H    1.201974  -4.983924  3.550742
H    1.845373  -4.976534  1.239374
H    2.923059  -4.086784  2.129928
H    1.823423  -3.319062  1.152209
N    -1.180148  1.472249  4.650440
C    -0.820553  2.630987  5.459258
H    -0.844542  1.398972  3.656371
H    -0.153016  3.270774  4.869988
H    -0.268123  2.335912  6.364864
H    -1.704848  3.246632  5.699939
Cd    -2.776223  1.633866  7.871524
