35
Energy: -172331.997897 eV PBE+vdW (tier 2 basis)
C    -0.243787  0.481088  -0.244947
C    0.037262  0.272077  1.201490
O    1.221489  0.442679  1.682495
H    -1.271731  0.268377  -0.539518
H    0.417751  -0.156273  -0.845077
H    -0.025850  1.538438  -0.479204
N    -0.879897  -0.047127  2.132174
C    -2.121250  -0.829729  2.015373
C    -1.819167  -2.185939  1.288206
O    -1.008365  -2.214550  0.367416
H    -0.478451  -0.051979  3.072269
H    -2.382152  -1.050980  3.059979
C    -3.349607  -0.129755  1.372849
C    -3.823654  1.104326  2.168418
C    -5.314660  1.477507  2.004543
C    -5.696947  2.065012  0.646503
N    -7.148596  2.530035  0.647025
H    -4.145744  -0.890254  1.360809
H    -3.153048  0.110963  0.319675
H    -3.190541  1.974023  1.936469
H    -3.682052  0.912768  3.242454
H    -5.546082  2.215832  2.788488
H    -5.937706  0.593666  2.217084
H    -5.614510  1.344143  -0.176266
H    -5.099319  2.950799  0.396519
H    -7.800894  1.755917  0.843183
H    -7.418637  2.932537  -0.263365
H    -7.315337  3.254940  1.361676
N    -2.506469  -3.270073  1.717482
C    -2.323727  -4.598629  1.153191
H    -3.061897  -3.194451  2.568109
H    -1.568087  -5.165930  1.723442
H    -1.982265  -4.510327  0.116610
H    -3.272924  -5.145029  1.218969
Cd    2.949020  1.444046  0.894536
