35
Energy: -172331.767430 eV PBE+vdW (tier 2 basis)
C    1.025828  1.257016  0.198779
C    0.658700  0.965677  1.621600
O    1.492392  0.620881  2.472446
H    1.943552  0.716918  -0.055531
H    1.243496  2.335788  0.119300
H    0.228852  1.014108  -0.513398
N    -0.672671  1.118448  1.967378
C    -1.329729  0.764765  3.212318
C    -0.796071  1.556502  4.452240
O    -1.746362  2.104251  5.119755
H    -1.296851  1.405700  1.213922
H    -2.356207  1.139111  3.098236
C    -1.520413  -0.775461  3.496348
C    -0.291591  -1.651785  3.772651
C    -0.491865  -3.159675  3.475476
C    -1.424216  -3.895238  4.439069
N    -1.438599  -5.390799  4.145303
H    -2.047962  -1.134561  2.598823
H    -2.246415  -0.827994  4.322034
H    0.053500  -1.520505  4.809416
H    0.548315  -1.341256  3.137307
H    0.504250  -3.626902  3.516374
H    -0.852664  -3.281396  2.441476
H    -2.468466  -3.567152  4.366523
H    -1.099117  -3.798418  5.482751
H    -0.498753  -5.806359  4.235477
H    -1.769385  -5.593237  3.189777
H    -2.058521  -5.898018  4.795343
N    0.485371  1.609239  4.722923
C    1.101517  2.341420  5.821847
H    1.090300  1.151119  3.994165
H    0.798418  1.935079  6.798522
H    0.900349  3.426153  5.749680
H    2.189800  2.230540  5.746148
Cd    -1.774484  3.533254  6.743822
