35
Energy: -172331.872172 eV PBE+vdW (tier 2 basis)
C    0.049212  -1.245023  2.459765
C    0.101442  -0.167231  1.432718
O    1.209510  0.222486  0.895031
H    0.881094  -1.132311  3.168304
H    0.147457  -2.217983  1.952595
H    -0.879813  -1.255587  3.037738
N    -0.992896  0.447686  0.989603
C    -2.396097  0.094138  1.257482
C    -2.701779  -1.299465  0.637984
O    -1.948025  -1.771203  -0.212135
H    -0.823172  1.113298  0.235091
H    -2.529553  0.050485  2.347634
C    -3.356297  1.182942  0.705676
C    -3.352419  1.379486  -0.823234
C    -4.569356  2.145224  -1.393044
C    -4.602197  3.639140  -1.068042
N    -5.743852  4.332055  -1.802113
H    -3.122454  2.118751  1.236131
H    -4.366032  0.896033  1.033900
H    -3.346864  0.399649  -1.322731
H    -2.431268  1.885518  -1.155618
H    -5.498491  1.665909  -1.045155
H    -4.543716  2.019409  -2.486650
H    -3.686369  4.151368  -1.389539
H    -4.762078  3.847923  -0.003134
H    -5.770521  5.341489  -1.591614
H    -6.662556  3.942777  -1.542215
H    -5.652284  4.237056  -2.825133
N    -3.817386  -1.980671  1.027452
C    -4.652047  -1.815730  2.203789
H    -3.932653  -2.858444  0.511817
H    -5.708576  -1.908977  1.907149
H    -4.499936  -0.846049  2.683810
H    -4.455959  -2.618938  2.932990
Cd    3.242402  -0.306677  1.282850
