35
Energy: -172331.950599 eV PBE+vdW (tier 2 basis)
C    0.091138  -0.887913  0.906732
C    0.083517  -0.358588  2.298284
O    0.988444  -0.697240  3.163759
H    0.149885  -1.984789  0.933884
H    0.984537  -0.513846  0.381625
H    -0.784363  -0.602654  0.317913
N    -0.850375  0.458466  2.769441
C    -2.105527  0.926133  2.165598
C    -2.293877  2.344800  2.788589
O    -2.088469  2.463042  3.996966
H    -0.732396  0.777797  3.741192
H    -1.990269  0.970369  1.077188
C    -3.297659  0.010718  2.563130
C    -4.674424  0.466345  2.043189
C    -5.788814  -0.579437  2.282807
C    -6.434478  -0.626162  3.672710
N    -7.664234  0.272699  3.782866
H    -3.298255  -0.074818  3.660623
H    -3.074388  -0.990389  2.162626
H    -4.616080  0.632759  0.957530
H    -4.948708  1.439143  2.483551
H    -5.387435  -1.584424  2.088053
H    -6.574933  -0.451682  1.522247
H    -5.759696  -0.314994  4.479759
H    -6.799103  -1.632884  3.906502
H    -8.079384  0.221509  4.725981
H    -8.396646  -0.014884  3.116092
H    -7.452238  1.262580  3.596961
N    -2.681936  3.390429  2.019051
C    -2.784549  3.493189  0.571757
H    -2.719959  4.268550  2.544127
H    -3.146876  2.561733  0.126060
H    -1.815474  3.762460  0.119579
H    -3.490071  4.298255  0.332821
Cd    3.007578  -1.346640  2.994286
