35
Energy: -172332.064077 eV PBE+vdW (tier 2 basis)
C    0.099186  0.806357  1.502299
C    -0.160019  -0.660690  1.477721
O    0.795260  -1.517067  1.346983
H    -0.802123  1.420895  1.573720
H    0.609547  1.079630  0.562033
H    0.754802  1.053707  2.346948
N    -1.392506  -1.190737  1.515522
C    -2.545254  -0.597811  2.193023
C    -2.129287  -0.301749  3.694252
O    -0.944735  -0.359420  4.007049
H    -1.391880  -2.212810  1.468694
H    -2.738133  0.394288  1.749829
C    -3.787547  -1.495633  2.024852
C    -4.352683  -1.564060  0.592026
C    -5.674402  -2.360918  0.534027
C    -6.249733  -2.400350  -0.882367
N    -7.568806  -3.160161  -0.937418
H    -4.576380  -1.109132  2.686327
H    -3.557890  -2.504333  2.405629
H    -3.617699  -2.021600  -0.087885
H    -4.525445  -0.541680  0.220723
H    -6.407634  -1.899902  1.215535
H    -5.503666  -3.388027  0.894672
H    -5.580927  -2.907706  -1.588868
H    -6.465109  -1.396794  -1.270261
H    -7.944518  -3.183921  -1.897986
H    -8.289197  -2.725387  -0.341582
H    -7.464447  -4.138096  -0.628135
N    -3.103207  0.074828  4.557707
C    -2.849553  0.373663  5.956275
H    -4.071241  0.080965  4.245695
H    -1.798231  0.649681  6.085620
H    -3.057654  -0.507793  6.588664
H    -3.522242  1.179809  6.276434
Cd    2.820907  -1.203795  0.730342
