35
Energy: -172331.703962 eV PBE+vdW (tier 2 basis)
C    0.740708  -0.865664  3.128906
C    -0.114344  -2.019799  2.738431
O    0.304101  -3.232055  2.706170
H    1.452780  -1.169269  3.907316
H    0.173024  -0.004208  3.495381
H    1.337085  -0.546030  2.258236
N    -1.382278  -1.851817  2.321221
C    -2.022119  -0.592336  1.926621
C    -2.793036  0.049794  3.148254
O    -2.610462  1.247600  3.332892
H    -1.867032  -2.724054  2.090825
H    -1.238652  0.138432  1.700695
C    -2.925542  -0.771689  0.686496
C    -3.542945  0.551608  0.192287
C    -4.314020  0.387218  -1.134066
C    -4.894170  1.724856  -1.597172
N    -5.652792  1.593788  -2.911025
H    -3.719742  -1.504898  0.903839
H    -2.297301  -1.205635  -0.107244
H    -2.743161  1.296659  0.060129
H    -4.218914  0.961059  0.957851
H    -5.126224  -0.346160  -1.005171
H    -3.638384  -0.011393  -1.907762
H    -4.113181  2.474847  -1.774626
H    -5.610435  2.138560  -0.876332
H    -6.445474  0.939177  -2.835631
H    -5.047225  1.256590  -3.674030
H    -6.037763  2.503413  -3.208930
N    -3.596724  -0.727385  3.899199
C    -4.421166  -0.186389  4.980395
H    -3.792746  -1.676015  3.589212
H    -4.606462  -0.982949  5.709288
H    -5.388762  0.176749  4.603244
H    -3.892544  0.653808  5.445020
Cd    1.836344  -4.296906  3.827347
