35
Energy: -172332.709922 eV PBE+vdW (tier 2 basis)
C    -0.175655  -0.991211  0.333955
C    -0.119772  -0.460194  1.725004
O    0.943153  0.153979  2.077325
H    -1.099582  -1.540450  0.121042
H    0.691471  -1.642833  0.157386
H    -0.083446  -0.150071  -0.369801
N    -1.180747  -0.641433  2.537945
C    -1.328447  -0.030017  3.860530
C    -0.439670  -0.723539  4.933568
O    0.522482  -0.020237  5.439638
H    -1.972640  -1.134996  2.133593
H    -0.854387  0.962310  3.781057
C    -2.785196  0.355294  4.255988
C    -3.872113  -0.712997  4.462558
C    -5.226210  -0.154889  4.973049
C    -6.067802  0.591404  3.935280
N    -7.438694  0.944898  4.498746
H    -3.095290  1.076095  3.483343
H    -2.681259  0.941570  5.182439
H    -3.548525  -1.426684  5.228737
H    -4.047523  -1.297784  3.544872
H    -5.046809  0.492048  5.846654
H    -5.803948  -1.017538  5.339251
H    -6.260495  -0.019108  3.043857
H    -5.624194  1.542557  3.616827
H    -8.014121  1.443583  3.802339
H    -7.372064  1.553477  5.328786
H    -7.966076  0.103932  4.780048
N    -0.568618  -1.961466  5.364128
C    -1.479627  -3.043021  4.987623
H    0.130432  -2.213528  6.070954
H    -2.056057  -2.787085  4.098035
H    -2.153266  -3.277287  5.821581
H    -0.874600  -3.934305  4.776849
Cd    1.712599  0.897671  3.925869
