15
Energy: -164976.36896 eV PBE+vdW (tier 2 basis)
N    0.479263  -1.386276  0.031151
C    -0.434337  -0.383333  0.711865
C    0.223972  -0.109999  2.075307
O    1.394457  -0.279315  2.274450
H    1.453550  -1.218295  0.353072
H    0.232065  -2.356353  0.284924
H    -0.359509  0.553586  0.135203
C    -1.901375  -0.835845  0.738927
O    -2.169715  -1.896374  1.621759
H    -2.182378  -1.221899  -0.263782
H    -2.536296  0.053792  0.879362
H    0.448161  -1.307312  -0.995873
O    -0.663248  0.359653  3.011255
H    -0.136602  0.720289  3.761680
Cd    -2.576008  -1.471315  3.582702
