15
Energy: -164977.075405 eV PBE+vdW (tier 2 basis)
N    0.274906  -0.488762  -0.004600
C    0.199541  -0.284914  1.469665
C    1.604835  -0.537319  2.072081
O    2.350546  -1.419098  1.604746
H    -0.657424  -0.442086  -0.432287
H    0.851464  0.227170  -0.462628
H    -0.143503  0.732994  1.711894
C    -0.810982  -1.293605  2.069112
O    -0.421863  -2.620824  1.629276
H    -1.823989  -1.058425  1.709536
H    -0.795974  -1.243983  3.166795
H    -0.966505  -3.315224  2.043462
O    2.014266  0.121206  3.115168
H    1.428261  0.847425  3.414662
Cd    1.256108  -2.563927  0.066396
