15
Energy: -164975.826191 eV PBE+vdW (tier 2 basis)
N    0.019066  0.473195  0.202503
C    -0.105021  -0.020753  1.504526
C    1.242034  -0.559897  2.050262
O    1.460267  -1.777250  2.166696
H    -0.379397  1.374638  -0.049534
H    0.518872  -0.024314  -0.530672
H    -0.444874  0.797167  2.158494
C    -1.235617  -1.171267  1.720472
O    -0.693920  -2.440661  1.371817
H    -2.090191  -0.928327  1.080739
H    -1.513260  -1.117417  2.783836
H    0.341221  -2.382947  1.783561
O    2.090097  0.379228  2.345838
H    2.944984  0.020292  2.680590
Cd    -1.690330  -4.434146  1.382926
