15
Energy: -164976.485052 eV PBE+vdW (tier 2 basis)
N    -0.350367  -0.676492  -0.338651
C    -0.272016  0.098117  0.924630
C    1.174683  0.532908  1.302359
O    1.400923  0.926267  2.417535
H    -0.204568  -0.074520  -1.159377
H    0.369320  -1.410767  -0.387014
H    -0.840704  1.029474  0.774110
C    -0.870545  -0.665378  2.115579
O    -2.242098  -1.016182  1.759878
H    -0.890024  0.008968  2.983385
H    -0.298503  -1.571249  2.364621
H    -2.717708  -1.398123  2.523260
O    2.011819  0.423589  0.276432
H    2.912422  0.737077  0.522474
Cd    -2.410631  -1.662689  -0.392220
