15
Energy: -164976.295397 eV PBE+vdW (tier 2 basis)
N    -1.646512  -1.157051  -1.808288
C    -1.758396  -0.724543  -0.353808
C    -0.365467  -0.343208  0.231477
O    -0.204589  -0.198482  1.411618
H    -1.147838  -2.054836  -1.906359
H    -1.107208  -0.460018  -2.347432
H    -2.364818  0.194234  -0.356282
C    -2.424259  -1.781989  0.534025
O    -3.786002  -1.848443  0.146130
H    -2.253236  -1.412799  1.559866
H    -1.924533  -2.762246  0.438301
H    -2.575921  -1.257947  -2.242042
O    0.527324  -0.181727  -0.754768
H    1.390936  0.109903  -0.386774
Cd    -5.291478  -2.510850  1.359336
