15
Energy: -164976.622764 eV PBE+vdW (tier 2 basis)
N    0.016783  1.165853  2.120806
C    0.556811  0.475127  3.353917
C    1.879466  1.249411  3.664982
O    2.689984  0.857243  4.614681
H    -0.972150  1.439570  2.202801
H    0.128882  0.622197  1.252339
H    -0.153152  0.662855  4.173101
C    0.676906  -1.041146  3.119565
O    0.930833  -1.693791  4.400919
H    1.482139  -1.282857  2.409441
H    -0.276421  -1.435558  2.738935
H    0.632591  -2.622968  4.364036
O    2.112309  2.254137  3.014322
H    0.627756  2.029092  2.038347
Cd    2.622264  -0.888167  5.723808
