15
Energy: -164976.34927 eV PBE+vdW (tier 2 basis)
N    3.838178  -0.195519  -0.058671
C    3.980170  -0.573952  1.263598
C    5.521698  -1.055395  1.722503
O    6.505057  -0.520603  1.191082
H    3.742063  -0.882973  -0.801600
H    4.114267  0.736349  -0.355847
H    3.855792  0.296626  1.930783
C    2.961094  -1.674394  1.614357
O    3.220676  -2.121088  3.007653
H    3.027965  -2.540548  0.942147
H    1.950906  -1.251431  1.606344
H    2.704873  -2.916039  3.263351
O    5.603717  -1.910748  2.662640
H    4.290869  -2.236179  3.076180
Cd    8.081650  -1.566504  2.428688
