25
Energy: -105800.4136690  eV PBE+vdW (tier 2 basis)
 C    0.59127    0.77888    2.21707
 C    0.06571   -0.60574    2.01699
 O    0.44083   -1.58544    2.64871
 H    0.86600    1.22969    1.25246
 H   -0.15949    1.41638    2.70664
 H    1.47296    0.72909    2.86320
 N   -0.93980   -0.86332    1.06814
 C   -1.91440    0.06688    0.59007
 C   -3.17481    0.36806    1.48280
 O   -3.78398    1.44456    1.23207
 H   -1.10410   -1.86407    0.93710
 H   -1.43138    1.05036    0.49559
 C   -2.40252   -0.36125   -0.83281
 C   -3.16635    0.81965   -1.39321
 O   -4.39491    0.72384   -1.67972
 O   -2.59749    1.96749   -1.41189
 H   -1.52078   -0.55839   -1.45893
 H   -3.03429   -1.25668   -0.79984
 N   -3.60689   -0.44827    2.43553
 C   -3.17578   -1.79461    2.84223
 H   -4.42890   -0.08634    2.92070
 H   -3.09649   -2.46661    1.98028
 H   -2.23634   -1.77242    3.40536
 H   -3.95488   -2.19731    3.49637
Sr   -4.62966    2.88341   -0.54467
