25
Energy: -105800.8106929  eV PBE+vdW (tier 2 basis)
 C    0.33066    0.76786    0.23033
 C    0.01839    0.44590    1.66259
 O    0.76103    0.72464    2.60019
 H    0.17859   -0.10055   -0.42406
 H   -0.34905    1.57240   -0.09453
 H    1.36171    1.12210    0.14778
 N   -1.18122   -0.20581    1.93866
 C   -1.60578   -0.43356    3.29014
 C   -1.09898   -1.75841    3.95099
 O   -1.29692   -1.93365    5.18292
 H   -1.77652   -0.48155    1.15815
 H   -1.12418    0.35272    3.90441
 C   -3.14933   -0.32466    3.41729
 C   -3.46434   -0.27534    4.89301
 O   -4.24555   -1.10279    5.44498
 O   -2.80299    0.53157    5.64182
 H   -3.67413   -1.16048    2.93978
 H   -3.47538    0.61797    2.95391
 N   -0.47723   -2.64530    3.19473
 C    0.05479   -3.92324    3.67746
 H   -0.36958   -2.42441    2.20828
 H    0.55609   -3.77519    4.63932
 H   -0.75195   -4.65821    3.79192
 H    0.77592   -4.29501    2.94443
Sr   -2.50218   -1.28968    7.17475
