25
Energy: -105800.8086771  eV PBE+vdW (tier 2 basis)
 C    0.58540    0.70936    0.77608
 C   -0.15980    1.07254    2.02736
 O   -0.04131    2.15487    2.59678
 H    1.45122    1.36700    0.65595
 H   -0.09538    0.87503   -0.07517
 H    0.90224   -0.34128    0.77213
 N   -1.03555    0.13317    2.56352
 C   -1.88985    0.46170    3.66979
 C   -1.27486    0.24330    5.09159
 O   -1.90547    0.67309    6.09444
 H   -1.10355   -0.77976    2.11468
 H   -2.04730    1.55710    3.63000
 C   -3.25706   -0.26486    3.55580
 C   -4.17361    0.36209    4.57858
 O   -4.74858   -0.31764    5.47726
 O   -4.25368    1.64227    4.63845
 H   -3.17753   -1.34561    3.72259
 H   -3.67002   -0.08394    2.55264
 N   -0.11383   -0.37902    5.19012
 C    0.58423   -0.64765    6.45062
 H    0.31594   -0.70288    4.32746
 H    1.63915   -0.83108    6.22816
 H    0.16271   -1.53266    6.94413
 H    0.49595    0.21925    7.11291
Sr   -3.99646    1.45160    7.01713
