25
Energy: -105800.5470022  eV PBE+vdW (tier 2 basis)
 C    0.77085   -1.59935    1.61950
 C    0.32052   -0.19595    1.67359
 O    0.83226    0.74901    1.06465
 H   -0.06252   -2.30864    1.71495
 H    1.36112   -1.79544    0.71850
 H    1.41634   -1.76964    2.50115
 N   -0.77509    0.14537    2.52061
 C   -2.15253   -0.21837    2.20680
 C   -2.34102   -0.54699    0.69547
 O   -1.73964    0.13452   -0.16845
 H   -0.68907    1.11468    2.87741
 H   -2.44152   -1.10212    2.80596
 C   -3.08130    0.98728    2.57436
 C   -2.57700    2.16229    1.76074
 O   -1.42420    2.64204    2.07981
 O   -3.09961    2.54861    0.68006
 H   -2.99400    1.18922    3.65060
 H   -4.12629    0.75826    2.33577
 N   -3.20114   -1.51878    0.40134
 C   -3.63760   -1.86122   -0.95045
 H   -3.64460   -2.01532    1.17264
 H   -3.79107   -2.94505   -1.00556
 H   -2.87578   -1.54941   -1.66976
 H   -4.58889   -1.36015   -1.18253
Sr   -0.74121    2.38617   -0.28316
