25
Energy: -105801.0033573  eV PBE+vdW (tier 2 basis)
 C   -2.54368    0.96470    1.32331
 C   -2.04926    0.18060    2.49942
 O   -2.86117   -0.31329    3.31677
 H   -3.26881    0.35799    0.76495
 H   -1.74365    1.28963    0.64917
 H   -3.07991    1.84886    1.69606
 N   -0.70684    0.02927    2.62479
 C    0.10085   -0.66712    3.64042
 C   -0.39020   -2.11678    3.86859
 O   -1.47764   -2.33727    4.45589
 H   -0.16440    0.44348    1.87092
 H    1.09887   -0.71891    3.19152
 C    0.30826    0.10702    4.98101
 C   -0.91418    0.15661    5.84909
 O   -1.86478    0.97562    5.64067
 O   -1.13958   -0.71752    6.74871
 H    0.62870    1.13015    4.73721
 H    1.12002   -0.38349    5.53793
 N    0.36787   -3.13441    3.45095
 C    1.66818   -3.10984    2.77927
 H   -0.01269   -4.05383    3.68382
 H    1.63616   -2.49430    1.87167
 H    1.91538   -4.13501    2.48890
 H    2.45906   -2.74668    3.45136
Sr   -3.32457   -1.10251    5.53558
