25
Energy: -105800.7733463  eV PBE+vdW (tier 2 basis)
 C   -2.02477    0.39554   -0.10455
 C   -1.39988   -0.39905    1.00178
 O   -0.97312   -1.54573    0.87501
 H   -2.80256    1.06980    0.27821
 H   -2.44003   -0.28598   -0.85268
 H   -1.24808    1.00515   -0.59118
 N   -1.25659    0.20814    2.24287
 C   -0.42497   -0.39808    3.26538
 C   -0.84310   -1.88497    3.51184
 O   -2.01491   -2.15566    3.89252
 H   -1.46579    1.20348    2.32359
 H    0.62485   -0.40410    2.93058
 C   -0.51733    0.41586    4.57425
 C   -1.93320    0.32573    5.09705
 O   -2.89785    0.63178    4.30467
 O   -2.20665   -0.19782    6.21796
 H   -0.25091    1.46392    4.37082
 H    0.18326    0.03100    5.32388
 N    0.09372   -2.82467    3.44284
 C    1.47799   -2.71531    2.97462
 H   -0.22572   -3.75366    3.71940
 H    1.51083   -2.43392    1.91569
 H    1.94797   -3.69594    3.09212
 H    2.05109   -1.99946    3.58031
Sr   -3.94325   -1.44406    5.12100
