25
Energy: -105800.6350085  eV PBE+vdW (tier 2 basis)
 C    0.24468   -1.00427    0.18446
 C   -0.17933   -0.34661    1.44960
 O    0.62798   -0.09850    2.38597
 H    1.23959   -0.63170   -0.08933
 H   -0.45165   -0.82950   -0.64240
 H    0.34426   -2.08847    0.34926
 N   -1.48412   -0.00102    1.65770
 C   -2.64763   -0.79549    1.31319
 C   -3.86343   -0.00010    1.86196
 O   -3.71942    0.71006    2.85196
 H   -1.64704    0.53756    2.51653
 H   -2.71730   -0.94664    0.22870
 C   -2.64632   -2.21153    2.03295
 C   -1.69943   -2.18685    3.21367
 O   -0.64324   -2.89157    3.16857
 O   -1.85811   -1.36682    4.17826
 H   -2.29359   -2.96090    1.31172
 H   -3.65519   -2.50453    2.35701
 N   -5.04942   -0.17030    1.22480
 C   -6.23987    0.57427    1.58312
 H   -5.06008   -0.69040    0.34749
 H   -6.20083    0.82291    2.65044
 H   -7.12072   -0.02890    1.32916
 H   -6.30521    1.51997    1.01524
Sr    0.58741   -1.22565    4.51096
