25
Energy: -105800.9706309  eV PBE+vdW (tier 2 basis)
 C    1.38105   -1.34643    1.92547
 C    0.69773   -0.10325    2.39398
 O    1.35141    0.91383    2.75342
 H    1.97620   -1.11919    1.03014
 H    0.69134   -2.16445    1.69495
 H    2.08349   -1.67610    2.70344
 N   -0.65314   -0.10823    2.41690
 C   -1.51735    0.94868    2.90870
 C   -2.89793    0.30107    3.16844
 O   -3.20035   -0.73790    2.59326
 H   -1.14089   -0.94530    2.09005
 H   -1.09154    1.36727    3.82988
 C   -1.75570    2.10947    1.88464
 C   -0.53018    2.99612    1.91357
 O    0.21303    3.08507    0.89279
 O   -0.17792    3.55069    3.00854
 H   -2.62373    2.71883    2.17768
 H   -1.94137    1.69810    0.88541
 N   -3.78168    0.92264    4.00708
 C   -3.52846    1.93836    5.00612
 H   -4.66642    0.41064    4.08626
 H   -3.31638    1.48032    5.98919
 H   -2.69489    2.58893    4.72425
 H   -4.44451    2.53532    5.12644
Sr    2.13718    3.10551    2.47737
