25
Energy: -105800.4466345  eV PBE+vdW (tier 2 basis)
 C    0.10070    0.17205    0.20313
 C   -0.31970    0.37716    1.60141
 O    0.29843    1.01935    2.45490
 H    0.56340   -0.83020    0.14081
 H    0.84250    0.91645   -0.10364
 H   -0.75281    0.15336   -0.48841
 N   -1.52594   -0.23536    2.05926
 C   -2.84733    0.23604    1.65985
 C   -2.81328    1.70220    1.13851
 O   -2.06981    2.53634    1.71473
 H   -1.47255   -0.46553    3.06948
 H   -3.24490   -0.42273    0.86821
 C   -3.79635    0.18518    2.90442
 C   -3.14454    1.05232    3.96334
 O   -2.03275    0.62866    4.46178
 O   -3.49678    2.23255    4.22857
 H   -3.87954   -0.85492    3.24778
 H   -4.79384    0.55865    2.64741
 N   -3.62789    2.04222    0.14504
 C   -4.54289    1.19340   -0.62699
 H   -3.64518    3.04349   -0.05616
 H   -4.97242    1.80608   -1.42537
 H   -5.36987    0.82425   -0.00483
 H   -4.01405    0.35320   -1.09191
Sr   -1.02319    2.81679    3.90888
