25
Energy: -105800.6335911  eV PBE+vdW (tier 2 basis)
 C    0.33664   -0.62121    0.42357
 C   -0.27167   -0.02901    1.64511
 O    0.40539    0.24155    2.67392
 H    0.49929   -1.69902    0.57919
 H    1.32483   -0.16999    0.26946
 H   -0.27509   -0.47577   -0.47289
 N   -1.61145    0.22847    1.70797
 C   -2.67373   -0.62642    1.21391
 C   -3.99379    0.07790    1.63061
 O   -4.01168    0.77071    2.64288
 H   -1.90607    0.73135    2.55320
 H   -2.60696   -0.75270    0.12614
 C   -2.66477   -2.05858    1.90132
 C   -1.86163   -2.00803    3.18341
 O   -0.76367   -2.64442    3.24523
 O   -2.18156   -1.22682    4.14019
 H   -2.18549   -2.76551    1.21091
 H   -3.68335   -2.42063    2.10166
 N   -5.08419   -0.14983    0.85538
 C   -6.35363    0.51097    1.08263
 H   -4.95900   -0.64851   -0.02550
 H   -6.45449    0.73905    2.15057
 H   -7.15843   -0.14075    0.71892
 H   -6.41388    1.46228    0.52371
Sr    0.19538   -0.94507    4.75648
