25
Energy: -105800.4957878  eV PBE+vdW (tier 2 basis)
 C    0.53387   -0.18036    0.70760
 C   -0.38228    0.65597    1.54144
 O   -0.21542    1.85195    1.73071
 H    0.48603   -1.24489    0.96536
 H    0.29549   -0.04656   -0.35760
 H    1.55575    0.19208    0.85076
 N   -1.50307    0.11116    2.21694
 C   -2.44289   -0.89593    1.77949
 C   -2.31784   -2.23425    2.60018
 O   -3.20203   -3.11273    2.45062
 H   -1.89997    0.81785    2.84440
 H   -3.45070   -0.53378    2.04503
 C   -2.47574   -1.19592    0.25498
 C   -3.70119   -2.04332   -0.00954
 O   -3.60348   -3.16656   -0.58833
 O   -4.82437   -1.69341    0.49964
 H   -1.58855   -1.72560   -0.10212
 H   -2.57346   -0.24315   -0.28598
 N   -1.29650   -2.36163    3.42897
 C   -1.04667   -3.53538    4.27076
 H   -0.65115   -1.57564    3.47961
 H   -1.97273   -3.83939    4.77098
 H   -0.66583   -4.36894    3.66706
 H   -0.29775   -3.26635    5.02089
Sr   -5.10101   -3.98105    1.13493
