25
Energy: -105800.5113950  eV PBE+vdW (tier 2 basis)
 C   -0.21585    0.62202   -0.21741
 C   -0.07167    0.26140    1.23964
 O    0.94755    0.54575    1.87379
 H    0.76951    0.61569   -0.69370
 H   -0.61936    1.64363   -0.28129
 H   -0.89432   -0.07119   -0.73227
 N   -1.11082   -0.38954    1.85637
 C   -1.16211   -0.53854    3.30440
 C   -1.40890   -2.00357    3.74377
 O   -2.20779   -2.27834    4.68306
 H   -1.97595   -0.48894    1.32756
 H   -0.15441   -0.27532    3.67253
 C   -2.18641    0.47274    3.88772
 C   -2.42532    0.28214    5.35680
 O   -3.61419    0.21334    5.81247
 O   -1.47149    0.04478    6.17295
 H   -3.15239    0.39076    3.37203
 H   -1.79851    1.48799    3.71570
 N   -0.72029   -2.99014    3.16110
 C    0.39563   -2.93959    2.21655
 H   -0.97138   -3.91615    3.50936
 H    0.99214   -3.84650    2.35719
 H    1.03673   -2.07040    2.40503
 H    0.03777   -2.91809    1.17855
Sr   -2.87717   -1.78691    6.95311
