25
Energy: -105800.2910885  eV PBE+vdW (tier 2 basis)
 C    0.33512   -0.07328    0.84736
 C   -0.28749    0.60767    2.01674
 O    0.02212    1.78111    2.33246
 H    0.11945   -1.14305    0.78859
 H    0.06682    0.43126   -0.09043
 H    1.42358    0.04798    0.96354
 N   -1.16177   -0.06126    2.85218
 C   -2.38814   -0.76316    2.51033
 C   -2.35935   -1.55371    1.18097
 O   -2.07712   -2.74614    1.26616
 H   -1.19381    0.34563    3.79198
 H   -2.55609   -1.52209    3.29045
 C   -3.63576    0.22150    2.55742
 C   -3.17466    1.61085    2.14605
 O   -3.13033    2.49976    3.04881
 O   -2.70621    1.81502    0.97169
 H   -3.99501    0.24154    3.59342
 H   -4.45794   -0.13505    1.92182
 N   -2.71103   -0.93099    0.03221
 C   -2.72430   -1.61882   -1.24090
 H   -2.79705    0.09856    0.07014
 H   -2.94745   -2.68158   -1.07504
 H   -3.46386   -1.14004   -1.89380
 H   -1.74173   -1.56443   -1.74330
Sr   -1.38997    3.71872    1.94317
