25
Energy: -105800.5454231  eV PBE+vdW (tier 2 basis)
 C    0.77376   -1.52442    1.33626
 C    0.28383   -0.13807    1.44657
 O    0.70243    0.82815    0.80113
 H   -0.02409   -2.26233    1.49692
 H    1.28749   -1.69268    0.38429
 H    1.49972   -1.68077    2.15563
 N   -0.73603    0.16039    2.39852
 C   -2.12538   -0.24316    2.21417
 C   -2.45144   -0.55918    0.72333
 O   -1.95514    0.14817   -0.18528
 H   -0.64547    1.12851    2.75713
 H   -2.32773   -1.14323    2.82453
 C   -3.04980    0.92823    2.68885
 C   -2.66452    2.12692    1.84489
 O   -3.30204    2.50456    0.82437
 O   -1.50196    2.64109    2.05658
 H   -2.86208    1.12100    3.75385
 H   -4.10579    0.66865    2.55150
 N   -3.31162   -1.54943    0.49982
 C   -3.86966   -1.88421   -0.80870
 H   -3.66556   -2.06687    1.30295
 H   -4.02764   -2.96755   -0.85548
 H   -3.17674   -1.56784   -1.59295
 H   -4.83784   -1.38181   -0.95072
Sr   -1.04371    2.43189   -0.36416
