17
Energy: -604088.201457 eV PBE+vdW (tier 2 basis)
N    0.091300  0.549332  0.715176
C    -1.191344  -0.073684  1.252932
C    -0.913947  -0.589957  2.685724
O    -1.167809  -1.714838  3.035161
H    0.497105  1.183663  1.422610
H    0.776168  -0.199195  0.507617
H    -1.921082  0.745806  1.319876
C    -1.736543  -1.176182  0.349226
C    -0.912680  -2.439802  0.336123
O    0.374576  -2.381163  0.411695
O    -1.491189  -3.570673  0.205189
H    -1.838786  -0.823987  -0.691480
H    -2.752098  -1.431019  0.678394
O    -0.368866  0.392084  3.417475
H    -0.224320  0.094780  4.341576
H    -0.072878  1.092168  -0.145127
Pb    0.447390  -4.753330  0.396830
