17
Energy: -604088.171842 eV PBE+vdW (tier 2 basis)
N    -0.338525  0.262115  0.212820
C    -0.002859  -0.255231  1.601343
C    1.516622  -0.196608  1.769228
O    1.971793  -0.014937  2.934049
H    0.362736  -0.107784  -0.456900
H    -1.282916  -0.006569  -0.102723
H    -0.504828  0.386864  2.333643
C    -0.466134  -1.737494  1.731519
C    0.323347  -2.612624  2.722384
O    1.551280  -2.755512  2.664295
O    -0.328550  -3.311041  3.618639
H    -0.326538  -2.248661  0.763697
H    -1.538416  -1.757609  1.964181
O    2.220584  -0.548762  0.771184
H    -0.285319  1.292581  0.175748
H    -1.298448  -3.187849  3.611616
Pb    3.649171  -1.611880  2.439276
