17
Energy: -604088.257777 eV PBE+vdW (tier 2 basis)
N    -0.419669  -0.133714  0.603560
C    -0.202555  -0.089797  2.098231
C    1.243451  0.444264  2.244357
O    1.836341  0.878835  1.279255
H    -1.345173  0.199871  0.308861
H    0.341462  0.480455  0.215003
H    -0.864696  0.689971  2.502608
C    -0.521999  -1.400921  2.829743
C    0.204599  -2.639920  2.369897
O    0.421905  -3.586895  3.199728
O    0.565899  -2.777447  1.138648
H    -1.600254  -1.626790  2.752271
H    -0.332141  -1.262023  3.902239
O    1.665052  0.385135  3.499479
H    2.542356  0.818887  3.580192
H    -0.254314  -1.088881  0.243644
Pb    1.369736  -4.961030  1.628284
