17
Energy: -604087.421256 eV PBE+vdW (tier 2 basis)
N    -0.195451  -0.154416  0.171246
C    0.233445  -0.362012  1.510379
C    1.491501  -1.227097  1.703329
O    1.963752  -1.557850  2.846613
H    -0.409037  -0.989237  -0.370340
H    0.359110  0.503059  -0.370428
H    0.534716  0.618738  1.926012
C    -0.976899  -0.890903  2.357849
C    -0.938419  -0.706339  3.842761
O    -2.019183  -0.492212  4.487446
O    0.173105  -0.764082  4.518565
H    -1.152483  -1.963945  2.163879
H    -1.865223  -0.371709  1.973913
O    2.111820  -1.597055  0.640416
H    2.929084  -2.115099  0.831585
H    1.359066  -1.230679  3.612342
Pb    -1.067740  -0.411274  6.557896
