17
Energy: -604087.53727 eV PBE+vdW (tier 2 basis)
N    -0.019760  -0.703558  0.219687
C    0.248820  -0.250684  1.618803
C    1.734647  -0.421095  1.941695
O    2.460600  -1.188106  1.262788
H    -1.008935  -1.126777  0.265861
H    -0.104443  0.117291  -0.392731
H    -0.016038  0.814949  1.708720
C    -0.572743  -1.069261  2.659320
C    -2.029021  -1.273906  2.240833
O    -2.356669  -1.464046  1.071863
O    -2.844939  -1.270626  3.273000
H    -0.534113  -0.582120  3.641200
H    -0.144363  -2.076654  2.792308
O    2.289732  0.171078  2.954228
H    1.709896  0.788697  3.447453
H    -3.765374  -1.466464  2.987664
Pb    1.722985  -2.152252  -0.661787
