17
Energy: -604087.463191 eV PBE+vdW (tier 2 basis)
N    0.057288  0.008524  0.136693
C    -0.436423  -0.104386  1.498713
C    0.754860  -0.342745  2.407748
O    1.321489  -1.485238  2.577097
H    0.728282  -0.697719  -0.159945
H    0.397620  0.937956  -0.105573
H    -0.844880  0.872533  1.788970
C    -1.607746  -1.106598  1.633936
C    -1.399410  -2.519384  1.173632
O    -2.374168  -3.175672  0.676382
O    -0.254978  -3.124298  1.299874
H    -2.456569  -0.700512  1.067670
H    -1.947335  -1.168594  2.684671
O    1.282894  0.699917  2.952841
H    2.118744  0.504338  3.437392
H    0.803210  -2.228190  2.106826
Pb    -1.245876  -5.135930  0.406073
