17
Energy: -604087.529506 eV PBE+vdW (tier 2 basis)
N    -0.043924  0.012164  -0.173771
C    -0.185910  -0.467445  1.240573
C    1.100411  -0.012078  1.987428
O    1.822817  0.819638  1.489611
H    0.549511  0.865426  -0.105436
H    0.550188  -0.645517  -0.698686
H    -1.005444  0.101924  1.713680
C    -0.494787  -1.962149  1.349015
C    -1.805796  -2.392005  0.733144
O    -2.503582  -1.657030  -0.016074
O    -2.278995  -3.583670  0.945834
H    -0.493260  -2.243224  2.414257
H    0.304277  -2.573160  0.889620
O    1.217618  -0.604958  3.169168
H    2.004030  -0.258660  3.645598
H    -1.743104  -4.135525  1.554171
Pb    -2.230050  0.243268  -1.212134
