17
Energy: -604087.876634 eV PBE+vdW (tier 2 basis)
N    -0.139265  0.438380  0.260128
C    0.244859  -0.063789  1.634854
C    1.702634  -0.507669  1.648542
O    2.248985  -0.764413  2.773810
H    0.276437  1.353884  0.041747
H    -1.188203  0.523365  0.266784
H    0.138591  0.784856  2.326606
C    -0.679398  -1.218582  2.082291
C    -2.168500  -0.883061  2.216647
O    -2.559023  0.055844  1.281622
O    -2.902810  -1.398376  3.002024
H    -0.346267  -1.568968  3.066371
H    -0.595678  -2.073277  1.390248
O    2.349146  -0.641454  0.553583
H    0.147224  -0.217900  -0.481004
H    -3.523023  0.216258  1.373166
Pb    4.266292  -1.330100  1.781581
