17
Energy: -604088.24491 eV PBE+vdW (tier 2 basis)
N    0.649579  -0.384906  0.417605
C    0.445211  -0.419333  1.916196
C    0.639142  1.066388  2.327750
O    0.785493  1.913677  1.470017
H    -0.105629  -0.844741  -0.103471
H    0.679255  0.656583  0.207539
H    -0.610336  -0.670183  2.091883
C    1.357006  -1.391849  2.666212
C    1.057127  -2.860608  2.479912
O    1.590646  -3.701077  3.288017
O    0.292231  -3.275012  1.535820
H    1.287535  -1.177442  3.743287
H    2.421925  -1.230903  2.422604
O    0.587568  1.230398  3.636696
H    0.671849  2.182175  3.865281
H    1.543144  -0.794742  0.118992
Pb    0.573254  -5.499424  2.305658
