17
Energy: -604087.481094 eV PBE+vdW (tier 2 basis)
N    0.197512  0.165718  0.063321
C    -0.118096  0.082652  1.454412
C    1.062276  -0.222106  2.405978
O    1.167351  0.249420  3.572484
H    0.811023  0.937729  -0.189520
H    0.524737  -0.698235  -0.366811
H    -0.495001  1.070194  1.772869
C    -1.257848  -0.954428  1.639995
C    -2.066728  -0.893535  2.906010
O    -1.843399  -0.101996  3.858792
O    -3.091660  -1.682417  3.062912
H    -0.883040  -1.985542  1.518185
H    -1.942791  -0.787678  0.788812
O    1.988657  -0.983742  1.904678
H    2.735649  -1.132595  2.528155
H    -3.272344  -2.269617  2.298812
Pb    -0.368298  1.136178  5.021919
