17
Energy: -604087.402139 eV PBE+vdW (tier 2 basis)
N    0.565974  -1.274804  0.419848
C    -0.124249  -0.356166  1.290964
C    0.874510  0.213130  2.301495
O    1.062465  -0.213150  3.479455
H    1.091360  -2.020174  0.873767
H    1.106609  -0.839202  -0.325069
H    -0.469502  0.493090  0.683226
C    -1.349303  -1.095826  1.906445
C    -2.208295  -0.275142  2.831446
O    -1.919561  -0.094590  4.046471
O    -3.294448  0.313166  2.422071
H    -1.004098  -1.984292  2.456499
H    -1.930520  -1.465457  1.051410
O    1.638095  1.139071  1.790012
H    2.367735  1.407980  2.391651
H    -3.524742  0.124129  1.488638
Pb    -0.155033  -0.576762  5.369671
