17
Energy: -604087.900626 eV PBE+vdW (tier 2 basis)
N    0.283415  -0.271434  0.259944
C    0.333507  -0.318380  1.775051
C    1.877358  -0.419481  2.056883
O    2.311088  -0.000505  3.213109
H    -0.505368  -0.773209  -0.167877
H    0.274105  0.694280  -0.097026
H    -0.093149  0.611453  2.168403
C    -0.464913  -1.548958  2.257574
C    -0.625713  -1.717435  3.761045
O    -0.066113  -1.011213  4.615333
O    -1.408090  -2.671149  4.199969
H    -0.001057  -2.476073  1.876053
H    -1.483790  -1.510384  1.835874
O    2.567153  -0.866996  1.157238
H    1.210273  -0.710417  -0.014801
H    -1.855247  -3.196052  3.504882
Pb    1.899339  0.025587  5.331238
