17
Energy: -604088.273746 eV PBE+vdW (tier 2 basis)
N    -0.506991  0.329887  0.298263
C    0.043548  0.031269  1.671350
C    1.564393  -0.109524  1.562140
O    2.175543  0.400361  0.560038
H    -0.563605  -0.645273  -0.158908
H    0.118802  0.944525  -0.240600
H    -0.126312  0.906685  2.318768
C    -0.661014  -1.194232  2.275245
C    -0.687071  -2.376935  1.319022
O    -0.973932  -3.511366  1.922419
O    -0.480085  -2.254445  0.109317
H    -1.700264  -0.940664  2.538818
H    -0.176972  -1.476391  3.218650
O    2.208168  -0.684006  2.500873
H    -1.441353  0.756564  0.340969
H    -1.055995  -4.237492  1.265817
Pb    4.253140  -0.224965  1.482818
