17
Energy: -604087.413098 eV PBE+vdW (tier 2 basis)
N    -0.382480  0.077816  -0.034378
C    -0.150023  -0.088129  1.377312
C    1.340741  0.241165  1.503508
O    1.717379  1.437884  1.731033
H    -0.267991  -0.725935  -0.643441
H    -1.169193  0.663312  -0.296050
H    -0.670762  0.718296  1.910073
C    -0.628406  -1.408013  2.043837
C    -0.128335  -2.702637  1.486592
O    1.058024  -2.900036  1.050148
O    -0.967757  -3.680454  1.476031
H    -1.725932  -1.436979  2.016374
H    -0.355293  -1.415758  3.116198
O    2.258093  -0.657672  1.281704
H    1.645064  -2.048749  1.119052
H    -0.574099  -4.524652  1.152493
Pb    3.946355  1.055168  1.466599
