18
Energy: -564313.664428 eV PBE+vdW (tier 2 basis)
N    0.277376  0.161494  0.127130
C    0.206685  0.047034  1.599766
C    1.524550  0.278579  2.365595
O    2.662342  0.226275  1.880575
H    0.059452  1.101700  -0.227613
H    -0.458873  0.849381  1.966634
C    -0.358892  -1.385442  1.879230
C    -0.373621  -2.076328  0.502720
C    -0.571766  -0.926356  -0.464446
H    -1.371782  -1.270904  2.286384
H    0.230398  -1.929752  2.624730
H    -1.176531  -2.818032  0.423746
H    0.570777  -2.604734  0.295764
H    -1.610648  -0.541853  -0.435937
H    -0.315553  -1.105295  -1.514138
O    1.284647  0.495213  3.627206
H    2.106686  0.599242  4.161776
Hg    2.556753  -0.030223  -0.441123
