18
Energy: -564313.903243 eV PBE+vdW (tier 2 basis)
N    0.270525  0.034453  0.230029
C    0.037554  -0.195503  1.726527
C    1.370162  -0.101970  2.518225
O    1.249221  -0.122664  3.782517
H    -0.110063  0.948269  -0.049198
H    -0.609638  0.609346  2.099295
C    -0.635860  -1.571982  1.828643
C    -1.416586  -1.659773  0.509704
C    -0.444058  -1.103862  -0.524305
H    -1.261132  -1.624669  2.727733
H    0.112708  -2.376037  1.890371
H    -2.336075  -1.059713  0.554851
H    -1.699942  -2.691826  0.272022
H    -0.902447  -0.688564  -1.427121
H    0.329621  -1.826984  -0.806521
O    2.450055  -0.027644  1.889819
H    1.279604  0.054367  0.018004
Hg    3.476354  0.000756  4.109403
