18
Energy: -564313.881083 eV PBE+vdW (tier 2 basis)
N    -0.249829  0.222523  -0.054449
C    0.124678  0.007928  1.412940
C    1.662498  -0.228078  1.532763
O    2.135863  -0.126292  2.706576
H    -0.486750  1.205119  -0.247507
H    -0.099687  0.917349  1.981934
C    -0.694712  -1.222901  1.864662
C    -1.163011  -1.892120  0.567153
C    -1.418707  -0.720962  -0.366761
H    -1.549342  -0.848908  2.450590
H    -0.129802  -1.887130  2.528012
H    -2.071491  -2.487321  0.718802
H    -0.397543  -2.568582  0.158715
H    -2.341673  -0.179428  -0.125985
H    -1.399308  -0.949290  -1.437977
O    2.315454  -0.508209  0.503466
H    0.562931  -0.015889  -0.645603
Hg    4.230431  -0.624810  2.044670
