18
Energy: -564313.381114 eV PBE+vdW (tier 2 basis)
N    0.449332  -0.052889  -0.044342
C    0.260072  0.119002  1.413288
C    1.549948  0.323306  2.258035
O    2.696373  0.099275  1.849239
H    0.315618  0.814099  -0.579586
H    -0.315854  1.050954  1.555613
C    -0.504845  -1.164137  1.884069
C    -0.418372  -2.126256  0.686302
C    -0.421872  -1.189980  -0.505551
H    -1.545890  -0.882030  2.091294
H    -0.085474  -1.592296  2.801614
H    -1.262876  -2.824170  0.659810
H    0.500202  -2.733037  0.712030
H    -1.423572  -0.751827  -0.678765
H    -0.069130  -1.598795  -1.458173
O    1.409126  0.712232  3.491113
H    0.485978  0.884020  3.774580
Hg    2.752598  -0.445370  -0.390993
