16
Energy: -13946.1637179 eV PBE+vdW (tier 2 basis)
N    1.581112  -2.746802  1.391637
C    1.165818  -1.391515  1.052018
C    0.911527  -0.409146  2.211668
O    0.272172  0.618294  2.119892
H    0.881854  -3.168167  2.005580
H    2.457207  -2.729328  1.911776
H    1.992373  -0.926171  0.486782
C    -0.045888  -1.405308  0.114109
C    -1.285754  -1.973690  0.763576
O    -1.366255  -2.388924  1.903428
O    -2.341060  -1.973442  -0.092305
H    0.187862  -2.009001  -0.773485
H    -0.282661  -0.391177  -0.234185
O    1.544926  -0.782686  3.355446
H    1.346473  -0.082249  4.006907
H    -3.092705  -2.350688  0.405158
