16
Energy: -13946.072632 eV PBE+vdW (tier 2 basis)
N    -0.960198  -0.443315  3.487895
C    -0.235770  -1.277115  2.538339
C    1.176770  -0.725241  2.367987
O    1.684618  0.102573  3.093362
H    -0.297350  0.033605  4.100339
H    -1.600663  -0.991813  4.056905
H    -0.066515  -2.312630  2.900908
C    -1.023090  -1.409379  1.217421
C    -1.456462  -0.081762  0.631866
O    -2.579952  0.190031  0.270783
O    -0.412486  0.786890  0.517778
H    -1.937214  -1.986621  1.396054
H    -0.423260  -1.949586  0.470732
O    1.839831  -1.325855  1.346568
H    2.732385  -0.930312  1.336075
H    -0.788644  1.615530  0.163987
