16
Energy: -13946.0491809 eV PBE+vdW (tier 2 basis)
N    -1.004821  0.188864  0.495795
C    -0.353312  -0.306766  1.707806
C    1.173177  -0.165873  1.709624
O    1.825241  0.377950  2.574345
H    -0.602584  -0.251486  -0.333133
H    -0.857882  1.193934  0.400198
H    -0.706068  0.294063  2.556192
C    -0.774051  -1.776843  1.943249
C    -0.312575  -2.290879  3.289043
O    -0.883784  -2.106738  4.341641
O    0.861948  -2.978461  3.193205
H    -0.381414  -2.409809  1.137216
H    -1.869438  -1.800838  1.924635
O    1.734267  -0.718954  0.594832
H    2.698196  -0.593675  0.686573
H    1.106017  -3.221553  4.107993
