16
Energy: -13946.0863108 eV PBE+vdW (tier 2 basis)
N    1.476445  -1.493665  -0.119790
C    0.788621  -0.599670  0.789487
C    1.360991  -0.792573  2.189618
O    1.927475  -1.791552  2.575666
H    1.684231  -2.374616  0.353610
H    0.905073  -1.706430  -0.935875
H    0.979958  0.447350  0.504084
C    -0.777087  -0.727284  0.841875
C    -1.229838  -2.108492  1.244242
O    -1.360171  -3.050183  0.489930
O    -1.438740  -2.202013  2.588812
H    -1.156297  -0.529880  -0.168136
H    -1.178677  0.028062  1.528259
O    1.133406  0.290723  2.976374
H    1.477246  0.061364  3.861528
H    -1.658638  -3.138143  2.763317
