16
Energy: -13945.8248826 eV PBE+vdW (tier 2 basis)
N    -0.002684  -1.438229  0.077271
C    0.152676  -0.841217  1.412014
C    1.456090  -0.025148  1.486521
O    1.440478  1.197736  0.897822
H    0.535977  1.421189  0.614778
H    0.818273  -1.997543  -0.161598
H    -0.707907  -0.171904  1.579336
C    0.118055  -1.964471  2.458476
C    0.093794  -1.486476  3.911326
O    1.276287  -1.059655  4.417454
O    -0.909564  -1.487940  4.587125
H    0.984226  -2.624441  2.296830
H    -0.795841  -2.542120  2.288833
O    2.494448  -0.438688  1.966170
H    -0.114322  -0.734195  -0.652528
H    1.949013  -1.037896  3.698168
