16
Energy: -13946.0624905 eV PBE+vdW (tier 2 basis)
N    0.213717  -0.180569  0.013664
C    0.059444  -0.056241  1.471752
C    1.426700  -0.105468  2.159117
O    2.156624  0.851847  2.304406
H    0.662515  -1.067172  -0.224884
H    0.815275  0.564697  -0.339508
H    -0.333650  0.947728  1.675454
C    -0.936639  -1.112572  1.954056
C    -1.268479  -1.120118  3.429733
O    -1.735934  -2.062523  4.029628
O    -1.010905  0.080193  4.027301
H    -0.598790  -2.125829  1.701470
H    -1.880547  -0.955867  1.409110
O    1.789521  -1.372762  2.516374
H    2.693933  -1.302556  2.879332
H    -1.270944  -0.025308  4.963145
