16
Energy: -13946.1894409 eV PBE+vdW (tier 2 basis)
N    0.541499  -0.041636  -0.005705
C    0.261639  -0.165274  1.432536
C    1.449639  -0.877384  2.129420
O    1.388492  -1.321665  3.253499
H    0.197540  -0.856059  -0.515308
H    0.122401  0.794282  -0.407385
H    0.281745  0.855381  1.848378
C    -1.081964  -0.781592  1.846071
C    -1.351203  -2.222040  1.458292
O    -2.304131  -2.865957  1.830229
O    -0.403906  -2.733127  0.611401
H    -1.912639  -0.184557  1.440383
H    -1.178932  -0.742805  2.939093
O    2.561488  -0.903569  1.375990
H    2.268470  -0.500138  0.511582
H    -0.656137  -3.663860  0.453526
