16
Energy: -13946.015415 eV PBE+vdW (tier 2 basis)
N    -0.406431  -2.130189  3.397650
C    -0.372664  -1.374476  2.152575
C    1.063222  -0.988101  1.808586
O    1.557858  -1.070968  0.707247
H    -0.073861  -1.565535  4.179663
H    -1.356634  -2.433136  3.610145
H    -0.702114  -2.031475  1.337882
C    -1.271231  -0.092403  2.142009
C    -1.209829  0.673078  0.840267
O    -0.616235  1.714982  0.662359
O    -1.891469  0.027442  -0.149511
H    -0.958747  0.582570  2.947051
H    -2.304403  -0.418946  2.323342
O    1.721179  -0.485161  2.888715
H    2.608373  -0.227667  2.571631
H    -1.747014  0.550985  -0.961614
