16
Energy: -13946.1067368 eV PBE+vdW (tier 2 basis)
N    0.004313  -2.601727  3.053320
C    -0.727495  -1.976369  1.940602
C    0.083841  -0.821856  1.346661
O    0.962564  -0.955790  0.522915
H    0.186940  -1.918146  3.790796
H    0.911682  -2.936209  2.726433
H    -0.805225  -2.719032  1.135952
C    -2.126669  -1.593238  2.414379
C    -3.007920  -1.068084  1.307507
O    -2.707747  -0.994574  0.134349
O    -4.223866  -0.680993  1.784426
H    -2.089040  -0.839946  3.214856
H    -2.605957  -2.480462  2.854135
O    -0.208310  0.380812  1.926328
H    0.402893  1.026644  1.521765
H    -4.728002  -0.367031  1.008574
