16
Energy: -13946.0184862 eV PBE+vdW (tier 2 basis)
N    -0.485250  -1.879193  3.688006
C    -0.592303  -1.311804  2.351125
C    0.772009  -1.316266  1.667568
O    0.974418  -1.640274  0.519357
H    0.116419  -1.310736  4.284285
H    -1.402774  -1.937735  4.128877
H    -1.230174  -1.967396  1.744497
C    -1.198361  0.131715  2.296904
C    -1.455426  0.592017  0.880451
O    -2.396764  0.249101  0.197259
O    -0.472808  1.423186  0.430829
H    -0.534210  0.829798  2.821323
H    -2.166719  0.095413  2.811445
O    1.751192  -0.859451  2.497464
H    2.576130  -0.870208  1.974839
H    -0.684379  1.608833  -0.505229
