16
Energy: -13946.0936408 eV PBE+vdW (tier 2 basis)
N    1.402370  -0.466982  3.550462
C    0.440120  -0.773757  2.479151
C    1.030125  -0.409453  1.114926
O    0.961766  0.680801  0.585126
H    1.689882  0.512556  3.497412
H    2.245102  -1.032660  3.444478
H    0.257009  -1.855401  2.499481
C    -0.857100  -0.013010  2.744026
C    -2.028270  -0.305182  1.832589
O    -3.064960  0.320110  1.822401
O    -1.809639  -1.380142  1.018126
H    -0.685280  1.071417  2.690666
H    -1.181324  -0.227153  3.772776
O    1.739412  -1.446275  0.587485
H    2.139940  -1.109192  -0.237889
H    -2.620153  -1.474678  0.480785
