16
Energy: -13946.1298081 eV PBE+vdW (tier 2 basis)
N    -0.176461  -0.493055  -0.042215
C    0.023267  0.019017  1.320071
C    1.512565  0.121074  1.738683
O    2.074121  1.193451  1.811459
H    0.279389  -1.398198  -0.168526
H    0.246438  0.145834  -0.715567
H    -0.315152  1.062683  1.321354
C    -0.893416  -0.726502  2.309412
C    -0.796460  -2.230428  2.276139
O    0.191940  -2.879315  1.952931
O    -1.937929  -2.828909  2.665631
H    -1.936297  -0.450539  2.109292
H    -0.676785  -0.411730  3.343958
O    2.178878  -1.033099  1.956047
H    1.552786  -1.803552  1.900822
H    -1.772586  -3.792901  2.647347
