16
Energy: -13946.1501057 eV PBE+vdW (tier 2 basis)
N    -1.334817  -0.570164  -0.098845
C    -0.937508  -0.694492  1.295695
C    0.574561  -0.842641  1.489484
O    1.362627  -1.142783  0.617847
H    -1.182418  0.382281  -0.427900
H    -0.742392  -1.170859  -0.676530
H    -1.265062  0.200996  1.843358
C    -1.650088  -1.900615  1.936448
C    -3.134694  -1.631092  2.070446
O    -3.629276  -0.570143  2.383482
O    -3.870328  -2.751743  1.835705
H    -1.262117  -2.086203  2.949952
H    -1.482796  -2.809134  1.344152
O    0.947042  -0.612739  2.778881
H    1.913416  -0.754520  2.814881
H    -4.802734  -2.494370  1.976654
