16
Energy: -13946.0606987 eV PBE+vdW (tier 2 basis)
N    -0.319255  -0.492045  3.587434
C    -0.802269  -1.248433  2.423241
C    0.033267  -0.901206  1.194812
O    -0.399343  -0.621842  0.099157
H    -0.737032  -0.869728  4.438614
H    0.690266  -0.605736  3.679193
H    -0.701190  -2.347731  2.530452
C    -2.276256  -0.936157  2.165934
C    -2.921720  -1.902446  1.197802
O    -2.591822  -3.057981  1.026635
O    -3.975913  -1.333183  0.555159
H    -2.408590  0.094907  1.819502
H    -2.827366  -1.026428  3.116138
O    1.366724  -0.977812  1.467050
H    1.826079  -0.760007  0.633060
H    -4.344580  -2.030173  -0.022184
