16
Energy: -13946.089517 eV PBE+vdW (tier 2 basis)
N    -0.650911  -1.660845  3.768971
C    -0.601108  -1.092293  2.425015
C    0.734530  -1.455285  1.787529
O    1.467980  -2.340136  2.176958
H    -1.582948  -2.013674  3.977607
H    0.001679  -2.445006  3.822695
H    -1.361455  -1.515565  1.738431
C    -0.843666  0.431044  2.462608
C    -1.360438  0.992799  1.157475
O    -2.102803  0.417498  0.388901
O    -0.930648  2.267486  0.951470
H    0.044842  0.977781  2.798860
H    -1.626365  0.616495  3.214254
O    1.012540  -0.688864  0.701965
H    1.861290  -1.015978  0.346520
H    -1.346518  2.557543  0.115742
