16
Energy: -13946.102354 eV PBE+vdW (tier 2 basis)
N    -0.733920  -0.913211  3.632577
C    -0.729005  -1.443126  2.277610
C    0.677792  -1.631913  1.681480
O    1.711408  -1.589900  2.309934
H    -0.272561  -0.001658  3.640494
H    -0.170004  -1.512530  4.235789
H    -1.140911  -2.466992  2.325164
C    -1.681626  -0.661542  1.357990
C    -1.301031  0.749513  0.959621
O    -1.938762  1.440195  0.197134
O    -0.148794  1.183160  1.553832
H    -2.657035  -0.589976  1.859892
H    -1.851192  -1.205054  0.419921
O    0.632602  -1.918013  0.348200
H    1.558343  -2.063808  0.071524
H    0.000697  2.089855  1.221837
