23
Energy: -238631.818438 eV PBE+vdW (tier 2 basis)
C    0.469149  1.004545  1.108945
C    -0.401144  -0.192686  0.902999
O    0.102676  -1.349732  0.766337
H    0.015223  1.929136  0.736806
H    1.422428  0.831230  0.596906
H    0.694909  1.136472  2.179168
N    -1.747035  -0.061415  0.874253
C    -2.489014  0.794477  1.793303
C    -2.386448  0.152287  3.213253
O    -1.732679  -0.924380  3.392186
H    -2.243039  -0.902234  0.575875
H    -1.985421  1.771841  1.840276
C    -3.930412  0.984437  1.312666
H    -4.475456  0.031183  1.283971
H    -3.926793  1.420250  0.307039
H    -4.488210  1.668919  1.962315
N    -2.987935  0.770337  4.213412
C    -2.985390  0.306011  5.604414
H    -3.498668  1.625295  4.007727
H    -1.958318  0.234406  5.980837
H    -3.473556  -0.672758  5.681257
H    -3.537858  1.028994  6.209794
Ba    -0.273007  -2.818614  2.706262
