23
Energy: -238632.252614 eV PBE+vdW (tier 2 basis)
C    -0.317452  -0.035391  0.068501
C    -0.229778  -0.266576  1.543402
O    0.851006  -0.672713  2.064107
H    0.484528  0.646670  -0.242179
H    -1.281318  0.368577  -0.257723
H    -0.141242  -0.991397  -0.445163
N    -1.328200  -0.033981  2.280837
C    -1.561470  -0.322241  3.714521
C    -0.709304  0.583434  4.623038
O    0.515899  0.322435  4.830756
H    -2.143841  0.280341  1.762443
H    -2.611806  -0.053091  3.872326
C    -1.411148  -1.802086  4.076420
H    -1.646023  -1.957073  5.136729
H    -0.403879  -2.189337  3.883907
H    -2.112253  -2.400339  3.483027
N    -1.276701  1.624350  5.216086
C    -2.664332  2.099016  5.124072
H    -0.654496  2.147418  5.832686
H    -2.946419  2.304674  4.085153
H    -2.733613  3.036160  5.683127
H    -3.361473  1.381395  5.574015
Ba    2.468315  -0.764245  3.857916
