23
Energy: -238631.81777 eV PBE+vdW (tier 2 basis)
C    0.357178  -0.660239  1.764624
C    0.026615  0.629974  2.442251
O    0.939141  1.359196  2.938813
H    1.264157  -1.070012  2.222963
H    0.579989  -0.488604  0.699404
H    -0.452672  -1.394514  1.831794
N    -1.256608  1.050093  2.521295
C    -2.206886  0.940481  1.420714
C    -1.738483  1.919605  0.295395
O    -0.704895  2.642966  0.461802
H    -1.396874  1.856259  3.131468
H    -2.149502  -0.079804  1.012368
C    -3.631304  1.216809  1.910675
H    -4.368815  1.088989  1.109844
H    -3.733031  2.239534  2.298523
H    -3.888796  0.509134  2.707050
N    -2.453449  1.944270  -0.815325
C    -2.204948  2.780333  -1.990826
H    -3.265551  1.331796  -0.861055
H    -2.065842  2.142465  -2.871783
H    -1.307993  3.379987  -1.825658
H    -3.063259  3.441653  -2.160122
Ba    1.320827  3.433626  1.667788
