23
Energy: -238630.937082 eV PBE+vdW (tier 2 basis)
C    0.377559  1.368426  0.549321
C    -0.233961  0.516107  1.614965
O    0.357979  0.442148  2.781347
H    0.437668  2.409632  0.895780
H    -0.197824  1.344897  -0.381342
H    1.398843  1.022481  0.337527
N    -1.333753  -0.131270  1.358717
C    -2.140181  -1.033218  2.183266
C    -3.064282  -1.680860  1.098340
O    -3.076513  -1.147302  -0.020486
H    -1.798441  -0.117452  0.407191
H    -1.489605  -1.788478  2.647812
C    -2.953724  -0.268865  3.236261
H    -3.564303  -0.956522  3.831329
H    -3.623726  0.453501  2.754526
H    -2.294826  0.276208  3.924197
N    -3.809109  -2.747616  1.412289
C    -3.884787  -3.487266  2.666655
H    -4.414016  -3.056205  0.652757
H    -4.715443  -3.137889  3.295364
H    -2.947529  -3.406520  3.227801
H    -4.042923  -4.547441  2.442042
Ba    1.784897  0.724504  4.539341
