23
Energy: -238632.418498 eV PBE+vdW (tier 2 basis)
C    -1.971524  1.400225  0.243291
C    -1.316662  0.114215  0.630091
O    -0.350841  -0.352608  -0.047681
H    -1.224929  2.204534  0.314543
H    -2.830395  1.658824  0.871147
H    -2.290152  1.352810  -0.805753
N    -1.764250  -0.526797  1.719665
C    -1.137026  -1.697983  2.358652
C    -1.508000  -2.989200  1.594520
O    -0.904389  -3.262774  0.511099
H    -2.535683  -0.096055  2.224678
H    -0.049903  -1.591993  2.221937
C    -1.455482  -1.696446  3.851334
H    -1.057645  -0.786446  4.316612
H    -0.986966  -2.552212  4.351538
H    -2.537145  -1.720118  4.053758
N    -2.440992  -3.784706  2.085043
C    -2.880554  -5.033468  1.456120
H    -2.872953  -3.522842  2.967202
H    -3.457243  -4.822906  0.546942
H    -3.512262  -5.574519  2.165086
H    -2.011982  -5.649702  1.199398
Ba    0.580976  -2.281832  -1.172223
