23
Energy: -238630.943379 eV PBE+vdW (tier 2 basis)
C    -0.042956  -0.070999  -0.104185
C    0.026961  0.321904  1.343449
O    1.258400  0.450043  1.835512
H    0.267413  -1.119864  -0.216100
H    0.653543  0.540738  -0.690454
H    -1.044438  0.032006  -0.532706
N    -0.972560  0.527504  2.131055
C    -2.371422  0.408273  1.733028
C    -3.083678  1.198467  2.839518
O    -2.328638  1.523459  3.836816
H    -1.392371  1.167784  3.459407
H    -2.579992  0.891096  0.763861
C    -2.855523  -1.054997  1.720886
H    -2.656677  -1.531810  2.688276
H    -2.325563  -1.614420  0.941846
H    -3.928450  -1.128510  1.510770
N    -4.351764  1.528184  2.847607
C    -5.354694  1.281615  1.809451
H    -4.667751  2.016360  3.687012
H    -4.874492  1.087028  0.846786
H    -5.980176  2.175085  1.712066
H    -5.989061  0.429723  2.084220
Ba    3.327886  0.610331  2.652880
