23
Energy: -238631.691554 eV PBE+vdW (tier 2 basis)
C    -1.907224  0.764813  0.091309
C    -0.515127  0.761964  0.634112
O    0.417720  1.364468  0.019150
H    -2.164727  -0.219279  -0.331225
H    -1.977508  1.509364  -0.706765
H    -2.642808  0.989984  0.871922
N    -0.209022  0.113969  1.784750
C    -0.675450  -1.230534  2.153059
C    -0.224222  -2.212185  1.029507
O    0.615323  -1.838490  0.148402
H    0.726940  0.335522  2.120733
H    -0.068679  -1.496155  3.033005
C    -2.146934  -1.340226  2.570415
H    -2.318252  -2.266195  3.134898
H    -2.842436  -1.319823  1.725210
H    -2.391959  -0.518203  3.252547
N    -0.711063  -3.439692  1.060152
C    -0.345692  -4.528030  0.150940
H    -1.404400  -3.649530  1.774607
H    0.657295  -4.353494  -0.246132
H    -1.064376  -4.593482  -0.676091
H    -0.357548  -5.470106  0.708092
Ba    1.988145  -0.178659  -1.087597
