21
Energy: -102124.106224 eV PBE+vdW (tier 2 basis)
N    -1.069678  -1.375143  0.138565
C    -0.288217  -0.376237  0.871732
C    1.223893  -0.517158  0.597699
O    1.719260  -1.531341  0.166128
H    -1.126047  -1.089632  -0.841273
H    -0.520305  -2.242959  0.118439
H    -0.606150  0.629836  0.564359
C    -0.502946  -0.514838  2.402578
C    -1.932418  -0.395272  2.804403
N    -2.370332  0.285023  3.927347
C    -3.087898  -0.878605  2.232303
C    -3.711750  0.214763  4.023885
N    -4.196438  -0.489500  2.995968
H    0.098821  0.242065  2.924141
H    -0.120805  -1.497235  2.726162
H    -3.093551  -1.412688  1.272548
H    -4.288039  0.668510  4.822422
H    -1.767690  0.770399  4.590094
O    1.889591  0.606347  0.928021
H    2.842502  0.461988  0.752247
Sr    -5.861692  -1.698355  1.914670
