21
Energy: -102124.658557 eV PBE+vdW (tier 2 basis)
N    0.631769  -0.212455  -1.055318
C    -0.152371  -0.187473  0.217758
C    0.840916  -0.197267  1.423143
O    1.886838  0.567377  1.228513
H    0.913563  -1.179523  -1.253979
H    0.032024  0.051226  -1.843134
H    -0.673912  0.781929  0.242343
C    -1.188899  -1.341095  0.314618
C    -2.283828  -1.173696  1.309813
N    -3.526495  -1.548212  1.094368
C    -2.273326  -0.676383  2.715140
C    -4.314044  -1.317842  2.277596
N    -3.619596  -0.809087  3.216090
H    -0.647055  -2.254469  0.624657
H    -1.629552  -1.539580  -0.673414
H    -1.912767  0.363292  2.811538
H    -5.371998  -1.573778  2.291502
H    -3.883848  -1.962025  0.230284
O    0.598159  -0.865406  2.409917
H    -1.543494  -1.246872  3.322714
Sr    2.902918  1.195340  -0.582148
