21
Energy: -102124.730304 eV PBE+vdW (tier 2 basis)
N    0.900198  -0.719810  -0.976088
C    -0.193222  -0.381286  -0.020516
C    0.379409  0.228237  1.288562
O    1.507473  0.859293  1.161990
H    1.241198  -1.665458  -0.766083
H    0.521767  -0.791584  -1.925583
H    -0.782524  0.421118  -0.493523
C    -1.116922  -1.567352  0.344479
C    -2.039451  -1.287413  1.490016
N    -3.070358  -0.462242  1.476188
C    -2.193874  -2.079231  2.751066
C    -3.811305  -0.611676  2.700170
N    -3.335798  -1.525906  3.446337
H    -0.498534  -2.432546  0.625094
H    -1.717268  -1.870662  -0.527686
H    -1.289785  -2.050475  3.379091
H    -4.678691  0.016578  2.894113
H    -3.304883  0.201713  0.739040
O    -0.278150  0.095847  2.314152
H    -2.373129  -3.148444  2.524513
Sr    2.949850  0.967298  -0.482329
