21
Energy: -102124.881681 eV PBE+vdW (tier 2 basis)
N    0.698355  0.199300  -0.842062
C    -0.056541  -0.066215  0.424522
C    0.890828  -0.713376  1.488263
O    2.154456  -0.524524  1.269896
H    0.642976  -0.636976  -1.435926
H    0.210638  0.923422  -1.379203
H    -0.324084  0.918766  0.840181
C    -1.367418  -0.860303  0.144881
C    -2.405463  -0.919321  1.219071
N    -2.167771  -1.141471  2.483112
C    -3.888852  -0.808303  1.092383
C    -3.415557  -1.184667  3.191070
N    -4.419172  -0.997925  2.423518
H    -1.112816  -1.906797  -0.104802
H    -1.847986  -0.441437  -0.750640
H    -4.308685  -1.555303  0.392540
H    -3.433406  -1.362607  4.264412
H    -1.162878  -1.275136  2.799633
O    0.430610  -1.298308  2.465508
H    -4.203079  0.169179  0.681068
Sr    3.303846  0.496002  -0.283424
