21
Energy: -102125.569934 eV PBE+vdW (tier 2 basis)
N    1.302344  -0.785226  1.117982
C    -0.024401  -0.201979  1.452173
C    0.198044  0.793298  2.594825
O    1.113004  0.622533  3.410011
H    1.160668  -1.586817  0.494963
H    1.815275  -0.107025  0.543214
H    -0.475773  0.309040  0.586185
C    -1.036282  -1.311530  1.921123
C    -0.521188  -2.049813  3.111154
N    -0.790277  -1.711076  4.422310
C    0.525142  -2.954821  3.197048
C    0.104448  -2.352211  5.228732
N    0.943797  -3.096612  4.511835
H    -1.187020  -2.000831  1.078216
H    -2.014431  -0.850457  2.113898
H    0.955238  -3.555900  2.397242
H    0.097843  -2.264341  6.311672
H    -1.549588  -1.114824  4.747023
O    -0.628071  1.799117  2.773058
H    -1.276935  1.911235  2.049371
Sr    2.619082  -1.245229  3.508197
