21
Energy: -102124.139715 eV PBE+vdW (tier 2 basis)
N    0.623369  1.569453  1.017118
C    0.011800  0.251514  1.460245
C    0.874070  -0.781431  0.711418
O    1.468810  -0.458447  -0.300237
H    1.090982  1.331054  0.103204
H    1.344220  1.911559  1.664995
H    0.126915  0.150450  2.545340
C    -1.481494  0.236740  1.046278
C    -2.202507  -1.055584  1.274970
N    -2.040176  -2.112025  0.405097
C    -3.131548  -1.380707  2.246932
C    -2.855890  -3.039340  0.862596
N    -3.568663  -2.666439  1.995337
H    -1.541850  0.476179  -0.027916
H    -1.988178  1.039839  1.601677
H    -3.519939  -0.795327  3.074306
H    -2.933228  -4.031414  0.400475
H    -0.074460  2.311390  0.884114
O    0.887519  -1.967101  1.300364
H    1.413082  -2.585431  0.749888
Sr    -5.182835  -4.240934  2.249799
