21
Energy: -102125.243716 eV PBE+vdW (tier 2 basis)
N    -0.689158  1.408466  0.538034
C    -0.123071  1.225103  1.928405
C    1.241548  0.530754  1.802051
O    1.813578  0.117205  2.855660
H    0.079033  1.418854  -0.153248
H    -1.255581  2.260673  0.446676
H    0.076124  2.222589  2.346639
C    -1.131650  0.480923  2.822753
C    -1.686869  -0.736215  2.149059
N    -2.905117  -1.293572  2.475852
C    -1.202389  -1.551990  1.131508
C    -3.087950  -2.393401  1.680944
N    -2.077557  -2.569063  0.853852
H    -1.938291  1.177906  3.097084
H    -0.605985  0.239638  3.759194
H    -0.258917  -1.484177  0.592858
H    -3.973113  -3.018579  1.747337
H    -3.546047  -0.966863  3.193724
O    1.780960  0.421247  0.644454
H    -1.291110  0.568264  0.349225
Sr    3.662565  -0.698764  1.641940
