21
Energy: -102125.043601 eV PBE+vdW (tier 2 basis)
N    0.234807  -2.179430  1.027021
C    -0.077927  -0.779684  1.232777
C    0.759938  -0.191851  2.377103
O    0.766248  -0.616636  3.560436
H    1.116025  -2.334681  0.540154
H    0.189679  -2.770379  1.852964
H    0.229098  -0.244010  0.326072
C    -1.613164  -0.531248  1.377005
C    -2.155045  -0.835733  2.731001
N    -2.657020  0.133192  3.572081
C    -2.104682  -1.977958  3.514192
C    -2.855033  -0.402354  4.807685
N    -2.507188  -1.690567  4.817155
H    -2.081967  -1.169059  0.614068
H    -1.839298  0.509825  1.109523
H    -1.894657  -2.997466  3.195548
H    -3.272891  0.151841  5.643329
H    -2.895643  1.085408  3.299094
O    1.552699  0.779931  1.992131
H    2.137372  1.088308  2.718887
Sr    -0.080353  -1.779450  5.422773
