21
Energy: -102125.267818 eV PBE+vdW (tier 2 basis)
N    0.078452  0.488718  2.466128
C    0.327151  -0.216827  3.771593
C    1.727381  -0.808882  3.774311
O    2.360347  -0.929670  2.664613
H    0.271942  1.496169  2.506154
H    -0.948922  0.341594  2.232064
H    0.233114  0.514696  4.582625
C    -0.762386  -1.343669  3.949479
C    -2.113074  -0.849639  3.579792
N    -2.974050  -0.166749  4.418126
C    -2.729714  -0.799696  2.331182
C    -4.052502  0.222038  3.666405
N    -3.924846  -0.134504  2.404436
H    -0.696214  -1.698563  4.985713
H    -0.504773  -2.190734  3.297464
H    -2.408532  -1.284297  1.410242
H    -4.897817  0.752415  4.094975
H    -2.886650  -0.061493  5.424793
O    2.212502  -1.223912  4.874308
H    0.676377  0.074427  1.731880
Sr    4.184213  -1.973423  3.826716
