21
Energy: -102124.474817 eV PBE+vdW (tier 2 basis)
N    0.043144  1.419386  1.474263
C    0.126249  -0.022311  1.633375
C    1.618430  -0.324001  1.415137
O    2.140650  -0.094523  0.266806
H    0.063369  1.724914  0.502363
H    -0.746813  1.838003  1.960991
H    -0.093482  -0.254531  2.684513
C    -0.820286  -0.816857  0.695605
C    -1.170009  -2.254135  1.201131
N    -2.028009  -2.980999  0.268543
C    -0.050581  -3.234978  1.287224
C    -1.437438  -4.097826  -0.085383
N    -0.217711  -4.284783  0.528544
H    -0.396243  -0.877748  -0.316777
H    -1.765899  -0.261100  0.630650
H    0.824433  -3.120837  1.928137
H    -1.865253  -4.809054  -0.791586
H    -2.939634  -2.661772  -0.060541
O    2.345688  -0.681466  2.406610
H    -1.681753  -2.173908  2.179354
Sr    4.254149  0.057524  1.269043
