21
Energy: -102124.634547 eV PBE+vdW (tier 2 basis)
N    0.328059  0.716621  -1.004916
C    -0.417372  0.383168  0.254294
C    0.594877  0.077544  1.366678
O    1.816746  0.316065  1.188735
H    0.345337  -0.129695  -1.588597
H    -0.247297  1.369644  -1.547315
H    -0.938073  1.302116  0.572406
C    -1.473521  -0.734050  0.049376
C    -2.311160  -0.981335  1.270258
N    -2.854987  -2.213918  1.578945
C    -2.792992  -0.132221  2.266255
C    -3.616923  -2.057906  2.705116
N    -3.587164  -0.817372  3.146968
H    -0.955347  -1.660811  -0.249902
H    -2.107079  -0.435585  -0.802149
H    -2.643690  0.940378  2.373237
H    -4.158124  -2.882493  3.159518
H    -2.734288  -3.079074  1.060104
O    0.195716  -0.393186  2.495539
H    -0.819334  -0.543006  2.483022
Sr    2.842619  1.387118  -0.520574
