21
Energy: -102124.530383 eV PBE+vdW (tier 2 basis)
N    0.822066  0.952426  0.570222
C    0.518235  -0.338494  1.165790
C    1.826519  -0.730548  1.873072
O    1.921079  -0.592496  3.141346
H    0.007440  1.551309  0.453551
H    1.334954  0.884877  -0.307891
H    -0.226188  -0.168199  1.955662
C    0.017909  -1.381077  0.140161
C    -0.478716  -2.734169  0.736015
N    -1.751429  -2.655782  1.453594
C    -0.875386  -3.714438  -0.318504
C    -2.630667  -3.428444  0.855219
N    -2.127515  -4.081480  -0.243544
H    0.833469  -1.619219  -0.557750
H    -0.797859  -0.934383  -0.444822
H    -0.212473  -4.079708  -1.104239
H    -3.659414  -3.543092  1.197038
H    -1.928266  -2.111117  2.296274
O    2.844821  -1.065862  1.168163
H    0.294557  -3.162094  1.400284
Sr    4.249865  -0.520009  2.969357
