21
Energy: -102124.803890 eV PBE+vdW (tier 2 basis)
N    0.582204  0.579518  -0.831686
C    -0.306821  0.338971  0.340023
C    0.488709  -0.252953  1.534473
O    1.748315  0.058025  1.579562
H    0.649623  -0.284974  -1.381676
H    0.143189  1.252602  -1.467487
H    -0.660919  1.327965  0.673403
C    -1.520728  -0.574646  0.062703
C    -2.270292  -0.913004  1.309939
N    -2.713459  -2.116831  1.613308
C    -2.961845  0.007766  2.276780
C    -3.554308  -2.037801  2.774704
N    -3.712523  -0.842281  3.181068
H    -1.187319  -1.499281  -0.432197
H    -2.223523  -0.075270  -0.624423
H    -3.657763  0.680930  1.741004
H    -3.981210  -2.942404  3.203871
H    -2.455468  -2.983467  1.140773
O    -0.132134  -0.931281  2.346063
H    -2.273537  0.655934  2.838055
Sr    3.049810  1.076482  0.139742
