21
Energy: -102124.667194 eV PBE+vdW (tier 2 basis)
N    0.965049  -0.374603  0.391196
C    0.344339  -0.323707  1.664116
C    1.282482  -0.895936  2.733304
O    2.289908  -1.597734  2.385659
H    1.290490  -1.289746  0.090219
H    0.485303  0.121851  -0.354525
H    0.170369  0.728060  1.939346
C    -1.098782  -1.046602  1.746753
C    -1.829913  -0.853268  3.005079
N    -2.264051  -1.811364  3.801688
C    -2.248339  0.418854  3.671984
C    -2.930498  -1.230192  4.934342
N    -2.929427  0.042673  4.894771
H    -0.991302  -2.109541  1.492413
H    -1.677625  -0.567768  0.943164
H    -2.921647  1.015116  3.027903
H    -3.371935  -1.867225  5.698767
H    -2.189671  -2.812883  3.616444
O    1.067993  -0.620785  3.970219
H    -1.392967  1.081303  3.890195
Sr    3.275223  -1.351503  4.477964
