21
Energy: -102125.155588 eV PBE+vdW (tier 2 basis)
N    -0.026319  -0.780294  0.047186
C    0.112065  -0.160468  1.414992
C    1.545873  -0.288957  1.913032
O    1.882028  0.362515  2.952484
H    -1.059684  -0.978661  -0.060383
H    0.521396  -1.650673  -0.019412
H    -0.135083  0.904913  1.314662
C    -0.900305  -0.833700  2.385248
C    -2.246189  -0.965386  1.743765
N    -3.101880  -2.026015  1.972869
C    -2.924804  -0.165060  0.829014
C    -4.230047  -1.812732  1.227278
N    -4.143684  -0.705953  0.518052
H    -0.921825  -0.213346  3.293420
H    -0.520585  -1.823646  2.685281
H    -2.626418  0.798429  0.418728
H    -5.073023  -2.497011  1.239935
H    -2.958628  -2.792642  2.623553
O    2.364456  -1.058726  1.298023
H    0.279204  -0.158485  -0.711248
Sr    4.090451  -0.444101  2.857523
