21
Energy: -102124.807755 eV PBE+vdW (tier 2 basis)
N    -0.426134  -0.798334  2.849867
C    0.604964  -1.402416  2.032997
C    1.941995  -0.640665  1.977343
O    2.016602  0.551411  2.435417
H    -0.359708  -1.051868  3.833818
H    -0.432418  0.220522  2.784429
H    0.853515  -2.391687  2.447439
C    0.072372  -1.604074  0.584735
C    -1.295747  -2.318075  0.676395
N    -2.197040  -2.136501  -0.447020
C    -1.343350  -3.795732  0.780340
C    -2.659205  -3.310062  -0.824278
N    -2.150663  -4.350394  -0.089802
H    0.785380  -2.160710  -0.034372
H    -0.091453  -0.620545  0.119286
H    -0.803218  -4.392924  1.515415
H    -3.378074  -3.441659  -1.632030
H    -2.476749  -1.238931  -0.840370
O    2.968834  -1.225885  1.482720
H    -1.740805  -1.862318  1.611690
Sr    4.337902  0.581848  2.061981
