23
Energy: -237156.978611 eV PBE+vdW (tier 2 basis)
N    -0.918100  0.353482  0.327198
C    -0.731092  0.026300  1.804408
C    0.567158  0.708050  2.245171
O    1.567784  0.631667  1.452820
H    -1.578060  -0.298795  -0.120769
H    -1.266999  1.310486  0.175174
H    -1.585548  0.444627  2.348173
C    -0.649019  -1.509327  1.934024
C    -0.392124  -2.117272  3.334624
C    1.055315  -1.968767  3.850889
C    -1.414870  -1.669608  4.385028
H    0.125208  -1.871658  1.237548
H    -1.614248  -1.906326  1.579175
H    -0.538238  -3.195738  3.166237
H    1.275232  -2.748889  4.589822
H    1.174826  -1.008951  4.383613
H    1.797817  -2.074375  3.041749
H    -1.307466  -0.606236  4.643855
H    -1.288131  -2.242960  5.311668
H    -2.444294  -1.838197  4.042144
O    0.633269  1.226014  3.397509
H    0.002168  0.270439  -0.139865
Ba    3.135413  1.010036  3.448803
