23
Energy: -237156.644087 eV PBE+vdW (tier 2 basis)
N    -0.053272  0.513566  0.259199
C    -0.243798  0.310621  1.752917
C    1.032295  0.955470  2.359446
O    0.973327  1.246110  3.628503
H    -0.311544  -0.307790  -0.301373
H    -0.565606  1.326641  -0.104046
H    -1.134234  0.870934  2.061877
C    -0.417294  -1.203545  2.019811
C    -0.524003  -1.702904  3.484502
C    0.849760  -1.957486  4.134338
C    -1.481020  -0.879122  4.358450
H    0.411735  -1.739940  1.530222
H    -1.339744  -1.503628  1.498709
H    -0.988077  -2.697213  3.396073
H    1.352345  -2.827115  3.691008
H    0.742466  -2.194281  5.206669
H    1.560449  -1.125454  3.985889
H    -2.489170  -0.831497  3.924764
H    -1.164566  0.172376  4.475186
H    -1.595969  -1.340013  5.349654
O    1.995186  1.131798  1.623077
H    0.984634  0.710473  0.184777
Ba    1.342207  0.962399  5.871878
