23
Energy: -237156.442502 eV PBE+vdW (tier 2 basis)
N    0.015154  0.671911  0.621998
C    0.197019  -0.041895  1.921201
C    1.596222  -0.625185  1.970972
O    2.236602  -0.853626  0.923273
H    -0.991836  0.658590  0.418391
H    0.226969  1.665940  0.762037
H    0.063311  0.653926  2.765599
C    -0.826484  -1.197480  2.066099
C    -2.303415  -0.748947  2.135932
C    -3.191807  -1.999141  2.213534
C    -2.571232  0.207297  3.301806
H    -0.587795  -1.761698  2.981153
H    -0.683989  -1.904904  1.230150
H    -2.566884  -0.229485  1.192475
H    -4.250870  -1.715486  2.197085
H    -3.011548  -2.552766  3.145583
H    -3.017257  -2.684256  1.372859
H    -3.636980  0.461797  3.347368
H    -2.028555  1.161215  3.220673
H    -2.307781  -0.256106  4.263754
O    2.149268  -0.958002  3.108115
H    1.605635  -0.734487  3.890765
Ba    1.713254  -0.338706  -1.393291
