23
Energy: -237156.484335 eV PBE+vdW (tier 2 basis)
N    0.282669  -0.065604  0.395677
C    -0.025723  0.077788  1.853079
C    1.278510  0.307314  2.607762
O    2.380182  0.051033  2.091312
H    -0.471203  -0.618365  -0.024094
H    0.186139  0.857631  -0.041553
H    -0.661331  0.966023  2.003281
C    -0.812302  -1.137446  2.424172
C    -0.080099  -2.438672  2.813518
C    -1.131651  -3.465720  3.262122
C    0.817643  -3.049921  1.721397
H    -1.608380  -1.358889  1.692945
H    -1.351881  -0.783937  3.315057
H    0.565125  -2.224460  3.682370
H    -0.651102  -4.365073  3.665643
H    -1.773987  -3.772877  2.424379
H    -1.778705  -3.057400  4.048926
H    1.030510  -4.104736  1.936047
H    1.813300  -2.562700  1.726015
H    0.359441  -3.014987  0.719053
O    1.263400  0.753524  3.839177
H    0.368337  0.963117  4.173909
Ba    2.881606  -0.983056  -0.092811
