23
Energy: -237156.656346 eV PBE+vdW (tier 2 basis)
N    -0.527312  0.401122  0.094078
C    0.128228  -0.105682  1.367629
C    1.597162  0.380701  1.217556
O    2.391725  0.097667  2.210475
H    -0.883251  -0.358772  -0.497953
H    -1.291580  1.065041  0.261220
H    -0.341266  0.428964  2.204987
C    -0.031712  -1.634099  1.541204
C    -0.363016  -2.144965  2.961557
C    -0.750837  -3.628273  2.886465
C    0.754247  -1.945454  4.000531
H    0.860207  -2.148722  1.150461
H    -0.864507  -1.961913  0.900103
H    -1.240594  -1.580730  3.321332
H    -1.039666  -4.008405  3.873855
H    0.082639  -4.245407  2.520022
H    -1.603059  -3.785291  2.213184
H    0.462208  -2.383098  4.963181
H    0.961048  -0.875507  4.172372
H    1.668406  -2.478464  3.668162
O    1.915253  0.978055  0.196815
H    0.281064  0.887831  -0.398733
Ba    3.928417  -0.467468  3.790805
