23
Energy: -237156.693827 eV PBE+vdW (tier 2 basis)
N    0.596312  0.117236  0.398280
C    -0.000480  0.110599  1.766461
C    1.134058  0.259507  2.766991
O    2.309404  -0.060624  2.500874
H    -0.141070  -0.132602  -0.269127
H    0.845304  1.081796  0.151773
H    -0.672711  0.969107  1.918000
C    -0.853620  -1.168223  1.998073
C    -0.254288  -2.543554  1.624023
C    0.772386  -3.094876  2.630812
C    -1.388328  -3.564588  1.435628
H    -1.770242  -1.020010  1.408048
H    -1.182395  -1.178707  3.047491
H    0.213522  -2.450295  0.611400
H    1.227448  -4.030330  2.270961
H    0.274285  -3.350253  3.576882
H    1.573030  -2.395535  2.933291
H    -0.995076  -4.555131  1.175135
H    -2.082391  -3.256141  0.644281
H    -1.962241  -3.669770  2.366657
O    0.757066  0.734611  3.925503
H    1.510104  0.800220  4.553251
Ba    2.836924  -1.531436  0.522310
