23
Energy: -237156.440255 eV PBE+vdW (tier 2 basis)
N    0.727078  0.061685  0.335624
C    -0.191941  0.232020  1.508286
C    0.496373  1.135155  2.526758
O    1.482443  1.835937  2.207669
H    1.231425  -0.823898  0.470455
H    0.145851  -0.116945  -0.489609
H    -1.057470  0.822494  1.157718
C    -0.716187  -1.111940  2.067046
C    -1.921997  -1.078309  3.040514
C    -3.101383  -0.255627  2.510226
C    -2.336863  -2.524108  3.353515
H    0.120303  -1.662837  2.527860
H    -1.034606  -1.701542  1.192640
H    -1.613446  -0.664384  4.029621
H    -2.880172  0.817265  2.399053
H    -3.953327  -0.325764  3.196934
H    -3.438301  -0.638042  1.535888
H    -3.138073  -2.540217  4.101438
H    -1.499721  -3.116243  3.745191
H    -2.714897  -3.020128  2.448413
O    0.039033  1.229524  3.739392
H    -0.703910  0.592932  3.902720
Ba    2.667786  2.109778  0.117724
