14
Energy: -562207.038608 eV PBE+vdW (tier 2 basis)
N    0.122440  0.352331  0.158248
C    0.097038  0.088602  1.608485
C    1.520915  0.043587  2.221371
O    2.548637  -0.269889  1.596906
H    -0.650926  -0.110559  -0.336922
H    0.127890  1.351775  -0.087554
H    -0.386691  0.959159  2.094021
H    -0.659792  -1.368148  3.024264
C    -0.630541  -1.216716  1.938429
H    -1.667783  -1.166581  1.580339
H    -0.136030  -2.091363  1.487357
H    2.387480  0.227390  3.922714
O    1.504142  0.313232  3.490279
Hg    2.101222  -0.535820  -0.660936
