14
Energy: -562207.321593 eV PBE+vdW (tier 2 basis)
N    -0.160287  0.169667  0.066945
C    -0.047254  -0.024223  1.573384
C    1.466486  -0.101327  1.962324
O    2.321029  -0.172342  1.048939
H    0.209139  -0.643188  -0.452549
H    0.341266  1.005994  -0.271588
H    -1.155177  0.276610  -0.191744
H    -0.437182  0.892783  2.039338
C    -0.809546  -1.260838  2.020638
H    -1.868657  -1.163426  1.736897
H    -0.765903  -1.344937  3.112768
H    -0.410307  -2.184227  1.578483
O    1.710465  -0.092291  3.206046
Hg    3.940928  -0.250255  2.866120
