14
Energy: -562206.751921 eV PBE+vdW (tier 2 basis)
N    0.332448  0.874886  0.818630
C    0.552364  0.128283  2.070921
C    1.962254  -0.544719  2.130080
O    2.613615  -0.851144  1.116179
H    -0.642150  0.819486  0.496260
H    0.613745  1.863290  0.866281
H    0.548595  0.876514  2.886557
H    -0.512928  -1.688786  1.458361
C    -0.515807  -0.951766  2.275779
H    -0.347552  -1.500348  3.211017
H    -1.508963  -0.487343  2.340546
H    1.925775  -0.602738  4.063402
O    2.458090  -0.868103  3.282414
Hg    1.658514  -0.109513  -0.821428
