13
Properties=species:S:1:pos:R:3:Z:I:1:forces:R:3 magmom=0 energy=-8809.14395145 dipole="-0.4251078 0.6048982 -0.7577601" pbc="F F F"
C      -0.37924857      -0.30479649       0.34918555        6       0.03090636      -0.02267734       0.02132956 
C      -0.72117066       1.17262982       0.12497824        6      -0.00212543      -0.02452313      -0.00287552 
C       1.11753319      -0.43677327       0.54440161        6      -0.02477258       0.01011025      -0.01386359 
N      -0.79786738      -1.20588192      -0.71750524        7       0.03428515       0.01585111       0.02602291 
O       1.78091263      -0.31736885      -0.62304268        8      -0.02579691      -0.01705084      -0.00391954 
H      -0.82798169      -0.64581172       1.28059973        1       0.01098252      -0.00292741       0.01134412 
H      -0.36303859       1.79945518       0.94165319        1       0.02285114      -0.02162041       0.02300582 
H      -0.27475734       1.52104516      -0.80517034        1       0.01758146       0.02441931      -0.03058610 
H      -1.80127254       1.28902006       0.05677741        1      -0.04145112       0.00237431      -0.01830903 
O       1.67490657      -0.58151869       1.59320905        8      -0.00147890       0.01807681       0.00663859 
H      -1.79904065      -1.15317880      -0.85202080        1      -0.01091341       0.00890039       0.00019098 
H      -0.35084218      -0.95119178      -1.58945978        1      -0.00730353       0.01248353      -0.03355784 
H       2.72459429      -0.39583624      -0.43564856        1      -0.00276476      -0.00341653       0.01457960 
