13
Properties=species:S:1:pos:R:3:Z:I:1:forces:R:3 magmom=0 energy=-8809.1446535 dipole="-0.4203868 0.5996099 -0.7600395" pbc="F F F"
C      -0.38014141      -0.30901194       0.34918596        6       0.00082697       0.01382158       0.00298171 
C      -0.71846458       1.17010042       0.12400061        6       0.00196905       0.00022297      -0.00610143 
C       1.11539324      -0.43929368       0.54131357        6      -0.00188416       0.03158431       0.00310666 
N      -0.80315761      -1.20836105      -0.71622476        7      -0.00363821      -0.00786588       0.02073523 
O       1.77590154      -0.33327235      -0.62868614        8      -0.00835485      -0.02602065       0.00162247 
H      -0.82591482      -0.64646141       1.28349205        1      -0.00066247      -0.00797767      -0.00171261 
H      -0.35506945       1.79394060       0.94150892        1      -0.00347346      -0.02451717       0.00941744 
H      -0.26910773       1.51903139      -0.80583763        1       0.00093321       0.00117273      -0.00548828 
H      -1.79922934       1.29186980       0.05433760        1       0.00562933      -0.00613100      -0.00432172 
O       1.67521662      -0.56671017       1.59125180        8       0.00197409       0.00787395      -0.00155711 
H      -1.80364064      -1.14554443      -0.85407927        1       0.00285413       0.00232855       0.00228160 
H      -0.35179308      -0.96169100      -1.58824232        1      -0.00077524       0.01994662      -0.02420565 
H       2.71978640      -0.40446189      -0.43957383        1       0.00460166      -0.00443834       0.00324160 
