13
Properties=species:S:1:pos:R:3:Z:I:1:forces:R:3 magmom=0 energy=-8809.1425936 dipole="-0.4083859 0.4132638 -0.7554433" pbc="F F F"
C      -0.39317960      -0.34205765       0.35961972        6      -0.00135605       0.01449938      -0.01647933 
C      -0.65188945       1.14423326       0.07403782        6       0.01083602      -0.00286930      -0.00391420 
C       1.10219345      -0.53595682       0.50698544        6      -0.02219207       0.00695499      -0.00685307 
N      -0.93151807      -1.25046983      -0.64080738        7       0.01513521      -0.01386138       0.02436660 
O       1.69013985      -0.91041740      -0.64343238        8      -0.03865222       0.00815863       0.00840555 
H      -0.81747183      -0.60090202       1.33048922        1       0.01011786       0.02365353      -0.02766086 
H      -0.23004819       1.78002022       0.85155974        1       0.00518340      -0.00730286       0.00903383 
H      -0.21285203       1.41901065      -0.88598310        1       0.02399338       0.01523847       0.00357707 
H      -1.72570527       1.32405942       0.01878733        1       0.01812654      -0.01072356       0.02230674 
O       1.71962706      -0.32363736       1.51107704        8      -0.01425091      -0.01441170       0.00160540 
H      -1.92289068      -1.08651249      -0.75699920        1      -0.02491075      -0.00759463      -0.00750047 
H      -0.48443916      -1.08758751      -1.53511655        1      -0.01562094      -0.03984264      -0.01470399 
H       2.63649968      -0.99217541      -0.47393197        1       0.03359059       0.02810108       0.00781672 
