13
Properties=species:S:1:pos:R:3:Z:I:1:forces:R:3 magmom=0 energy=-8809.1457093 dipole="-0.4606591 0.5138208 -0.7497116" pbc="F F F"
C      -0.38111787      -0.32231729       0.35022731        6       0.02944088      -0.01477017      -0.00539176 
C      -0.67435774       1.15902595       0.08537865        6       0.00775846      -0.01203024      -0.00870874 
C       1.11497040      -0.49400616       0.51202205        6      -0.02074916      -0.03184733      -0.01251551 
N      -0.86481423      -1.23504277      -0.67703824        7      -0.00561472       0.02210717       0.03338012 
O       1.73834289      -0.59766257      -0.67694003        8      -0.01615543      -0.00163836       0.00951421 
H      -0.81582629      -0.61357113       1.30619470        1       0.01396798      -0.00112578      -0.02858712 
H      -0.30185510       1.79158486       0.89014491        1       0.00741964       0.00267647       0.02578076 
H      -0.20947207       1.47163791      -0.84919542        1       0.03152893       0.00753004      -0.02790727 
H      -1.74923992       1.30527766      -0.00453355        1      -0.03859781       0.01266767       0.02341792 
O       1.70387292      -0.49273592       1.55399246        8      -0.00234382       0.01644920       0.01524875 
H      -1.87303769      -1.18182786      -0.74160643        1      -0.00546925       0.00998987      -0.02467750 
H      -0.47911872      -0.98067157      -1.57899423        1      -0.01959278      -0.03868816      -0.00212239 
H       2.68183966      -0.70287619      -0.50341071        1       0.01840715       0.02867963       0.00256858 
