13
Properties=species:S:1:pos:R:3:Z:I:1:forces:R:3 magmom=0 energy=-8809.14286843 dipole="-0.4733314 0.5692327 -0.743292" pbc="F F F"
C      -0.37639685      -0.30810584       0.35095897        6       0.01098391      -0.00735516      -0.00938242 
C      -0.69968483       1.16944462       0.10023705        6       0.01974978      -0.01322601      -0.00506441 
C       1.12040052      -0.46426888       0.53338168        6      -0.02536440       0.01563359      -0.02234433 
N      -0.81501348      -1.21334637      -0.70411666        7      -0.00438862      -0.00298371       0.02530511 
O       1.76669002      -0.40253356      -0.64729214        8      -0.02514462      -0.01718505       0.00614396 
H      -0.82499428      -0.63164027       1.28932619        1       0.02020404       0.00675465      -0.01087253 
H      -0.34165892       1.80488763       0.91027280        1       0.00217577      -0.00926117       0.01754372 
H      -0.23401126       1.49483683      -0.82990952        1       0.01474399       0.02319979      -0.00920265 
H      -1.77761202       1.30011489       0.00717016        1       0.00523034      -0.01660840       0.02252796 
O       1.69072911      -0.58741364       1.57844391        8      -0.02940679       0.01576421      -0.00813744 
H      -1.82493358      -1.21334980      -0.76705342        1       0.01405694       0.01966879      -0.03625564 
H      -0.44086944      -0.91707923      -1.59846035        1      -0.03193454      -0.03344193       0.01560613 
H       2.70876854      -0.51631923      -0.47323041        1       0.02909419       0.01904036       0.01413264 
