13
Properties=species:S:1:pos:R:3:Z:I:1:forces:R:3 magmom=0 energy=-8809.14493378 dipole="-0.4237944 0.5962782 -0.759848" pbc="F F F"
C      -0.38004512      -0.30856908       0.34830749        6       0.02824496      -0.02738930       0.01330515 
C      -0.71404277       1.17020118       0.11972287        6       0.00407242      -0.02409319      -0.00277288 
C       1.11645929      -0.44489048       0.53717388        6      -0.01243812       0.00796451      -0.00102998 
N      -0.80950869      -1.21178473      -0.71248213        7      -0.00409952       0.02397173       0.02927546 
O       1.77416971      -0.35656001      -0.63618204        8      -0.02797103      -0.01504857       0.01241375 
H      -0.82450133      -0.64275997       1.28453215        1       0.00395364      -0.00036479      -0.00040361 
H      -0.35197146       1.79641404       0.93494199        1       0.02446595      -0.01786300       0.02507237 
H      -0.26495563       1.51364306      -0.81124026        1       0.01136006       0.02205179      -0.02766168 
H      -1.79331046       1.29325798       0.05147445        1      -0.04375473       0.00023315      -0.02037435 
O       1.67819026      -0.56652879       1.58691600        8      -0.00231430       0.01861062      -0.01653199 
H      -1.81105401      -1.14862791      -0.84375843        1       0.00817647       0.00097800       0.00327204 
H      -0.36462897      -0.96554978      -1.58804200        1       0.00124364       0.01499550      -0.02465827 
H       2.71816808      -0.43277520      -0.45032185        1       0.00906067      -0.00404651       0.01009400 
