13
Properties=species:S:1:pos:R:3:Z:I:1:forces:R:3 magmom=0 energy=-8809.14497187 dipole="-0.424251 0.5959317 -0.7597723" pbc="F F F"
C      -0.37987904      -0.30862563       0.34801721        6       0.02632974      -0.02330376       0.01501267 
C      -0.71372369       1.17014809       0.11928036        6       0.00278708      -0.02147509      -0.00275525 
C       1.11652153      -0.44504038       0.53670549        6      -0.01161748      -0.00056117      -0.00006608 
N      -0.81000884      -1.21211916      -0.71220559        7       0.00033548       0.02324586       0.03468660 
O       1.77433303      -0.35787532      -0.63659446        8      -0.02426648      -0.01364639       0.01162787 
H      -0.82410301      -0.64228256       1.28448664        1       0.00347685      -0.00138953       0.00091511 
H      -0.35158663       1.79642798       0.93459180        1       0.02257048      -0.02022450       0.02165522 
H      -0.26466472       1.51364968      -0.81175633        1       0.01062930       0.02101718      -0.02581629 
H      -1.79307632       1.29300468       0.05099221        1      -0.04148516       0.00160437      -0.01993047 
O       1.67812183      -0.56682570       1.58650434        8      -0.00084193       0.02096853      -0.01493724 
H      -1.81150911      -1.14917748      -0.84264921        1       0.00021160       0.00108763       0.00368048 
H      -0.36626717      -0.96552758      -1.58801905        1       0.00644545       0.01574518      -0.03286739 
H       2.71828765      -0.43506405      -0.45050409        1       0.00542498      -0.00306825       0.00879477 
