13
Properties=species:S:1:pos:R:3:Z:I:1:forces:R:3 magmom=0 energy=-8809.14481949 dipole="-0.4235657 0.5980681 -0.7595237" pbc="F F F"
C      -0.37994824      -0.30804483       0.34841687        6       0.02915929      -0.02505746       0.01433071 
C      -0.71534136       1.17069161       0.12074563        6       0.00487219      -0.02706374      -0.00297081 
C       1.11649812      -0.44332286       0.53808944        6      -0.01361127       0.00884578      -0.00258499 
N      -0.80761249      -1.21108476      -0.71337972        7      -0.00021165       0.02660315       0.03679460 
O       1.77519302      -0.35038589      -0.63432010        8      -0.02451239      -0.01603592       0.01040952 
H      -0.82445291      -0.64323585       1.28432636        1       0.00319773      -0.00068659      -0.00328278 
H      -0.35371264       1.79672328       0.93641190        1       0.02205426      -0.01937249       0.02329924 
H      -0.26684961       1.51546374      -0.81005567        1       0.01187963       0.01999933      -0.02636425 
H      -1.79476441       1.29236167       0.05259360        1      -0.04396695       0.00220601      -0.01919334 
O       1.67748192      -0.56802475       1.58781155        8      -0.00000987       0.01809784      -0.01112213 
H      -1.80887489      -1.14823182      -0.84588399        1       0.00128565       0.00053381       0.00275638 
H      -0.36190219      -0.96361232      -1.58801675        1       0.00383783       0.01544842      -0.03093711 
H       2.71909993      -0.42677840      -0.44773115        1       0.00602553      -0.00351814       0.00886491 
