13
Properties=species:S:1:pos:R:3:Z:I:1:forces:R:3 magmom=0 energy=-8809.14200311 dipole="-0.4742075 0.5788504 -0.7425141" pbc="F F F"
C      -0.37567894      -0.30529002       0.35138161        6       0.00885817      -0.00900519      -0.00596033 
C      -0.70417340       1.17125433       0.10313682        6       0.02223079      -0.01099363      -0.00638549 
C       1.12081596      -0.45954676       0.53817272        6      -0.01998807       0.01320508      -0.01975281 
N      -0.80630757      -1.20905600      -0.70839571        7      -0.01781446      -0.01058266       0.03489100 
O       1.77119556      -0.37059948      -0.63872256        8      -0.02627992      -0.01604872       0.00465683 
H      -0.82641309      -0.63450819       1.28656639        1       0.01706148       0.00764255      -0.00674246 
H      -0.34835821       1.80757831       0.91373672        1      -0.00180481      -0.01361332       0.01401472 
H      -0.23879981       1.49837872      -0.82650974        1       0.01402527       0.02837557      -0.00816582 
H      -1.78258524       1.29856888       0.00919742        1       0.01070931      -0.01798106       0.02488735 
O       1.68718984      -0.60518419       1.58255500        8      -0.03220292       0.02111961      -0.01953344 
H      -1.81634016      -1.21738711      -0.77172338        1       0.02318683       0.01941245      -0.03835387 
H      -0.43385976      -0.90637596      -1.60099902        1      -0.02832837      -0.02826167       0.00659323 
H       2.71301593      -0.48681684      -0.46528627        1       0.03034668       0.01673104       0.01985113 
