13
Properties=species:S:1:pos:R:3:Z:I:1:forces:R:3 magmom=0 energy=-8809.1418725 dipole="-0.4744144 0.5802509 -0.7422821" pbc="F F F"
C      -0.37559891      -0.30494554       0.35151448        6       0.00867105      -0.00885272      -0.00595982 
C      -0.70478265       1.17147005       0.10356678        6       0.02230653      -0.01079395      -0.00668343 
C       1.12085734      -0.45896629       0.53881924        6      -0.01967285       0.01351336      -0.01981529 
N      -0.80508896      -1.20846185      -0.70894744        7      -0.01963834      -0.01132756       0.03363780 
O       1.77169766      -0.36624024      -0.63755490        8      -0.02407268      -0.01621862       0.00482545 
H      -0.82668387      -0.63494584       1.28624514        1       0.01706827       0.00789210      -0.00649317 
H      -0.34928625       1.80791649       0.91422845        1      -0.00217623      -0.01391039       0.01395425 
H      -0.23945164       1.49886439      -0.82601502        1       0.01377571       0.02863500      -0.00768091 
H      -1.78326688       1.29831973       0.00951987        1       0.01161095      -0.01816798       0.02514431 
O       1.68682181      -0.60768280       1.58298402        8      -0.03257691       0.02160976      -0.01990682 
H      -1.81513645      -1.21788190      -0.77239356        1       0.02472975       0.01931469      -0.03864692 
H      -0.43282019      -0.90485309      -1.60134109        1      -0.02878227      -0.02832055       0.00784881 
H       2.71351883      -0.48272915      -0.46414451        1       0.02875712       0.01662686       0.01977574 
