13
Properties=species:S:1:pos:R:3:Z:I:1:forces:R:3 magmom=0 energy=-8809.14557869 dipole="-0.4230061 0.5880015 -0.7618057" pbc="F F F"
C      -0.38072627      -0.31139831       0.34739523        6       0.01953823      -0.01855848       0.01217258 
C      -0.70778905       1.16820794       0.11435372        6       0.00141580      -0.01295594      -0.00282775 
C       1.11539386      -0.45156356       0.53216867        6      -0.00495755      -0.00932226       0.00555857 
N      -0.81956005      -1.21634125      -0.70754313        7      -0.00438995       0.01781446       0.02407031 
O       1.76970091      -0.38734998      -0.64438005        8      -0.01965099      -0.01093336       0.01362860 
H      -0.82285424      -0.63887448       1.28701077        1       0.00090426      -0.00153006       0.00116322 
H      -0.34073072       1.79455070       0.92758007        1       0.01752315      -0.01972612       0.01707948 
H      -0.25781793       1.50656445      -0.81839265        1       0.00637135       0.01934889      -0.02117216 
H      -1.78681488       1.29641245       0.04682976        1      -0.03235039       0.00163604      -0.01781296 
O       1.67963979      -0.55719092       1.58238885        8       0.00157753       0.02148085      -0.01959916 
H      -1.82115742      -1.14791430      -0.83522383        1       0.00415742       0.00124534       0.00684330 
H      -0.37753438      -0.97623640      -1.58614170        1       0.00759658       0.01430295      -0.02673284 
H       2.71405872      -0.46376766      -0.45964730        1       0.00226458      -0.00280219       0.00762877 
