13
Properties=species:S:1:pos:R:3:Z:I:1:forces:R:3 magmom=0 energy=-8809.14421268 dipole="-0.4188676 0.6051629 -0.7598326" pbc="F F F"
C      -0.37971961      -0.30780585       0.34996146        6      -0.00483187       0.01695087       0.00130139 
C      -0.72244690       1.17066480       0.12751427        6       0.00027444       0.00528989      -0.00542127 
C       1.11558878      -0.43437416       0.54487124        6       0.00051021       0.03058826       0.00140485 
N      -0.79731888      -1.20595602      -0.71859086        7      -0.00307807      -0.00653672       0.00204778 
O       1.77813686      -0.31395455      -0.62263616        8      -0.00145211      -0.02796173       0.00120986 
H      -0.82656120      -0.64927728       1.28226423        1      -0.00106552      -0.00617019      -0.00028406 
H      -0.36013659       1.79357060       0.94627339        1      -0.00709398      -0.02270058       0.00931382 
H      -0.27480623       1.52379740      -0.80172201        1       0.00142619      -0.00607027      -0.00145468 
H      -1.80371223       1.28956378       0.05873121        1       0.00940304      -0.00647563      -0.00250400 
O       1.67366315      -0.57091274       1.59455781        8       0.00149505       0.00881122      -0.00100916 
H      -1.79733442      -1.14341535      -0.86108939        1       0.00833876       0.00086291       0.00573474 
H      -0.34253117      -0.95702836      -1.58855889        1      -0.00596496       0.01776884      -0.01245391 
H       2.72190205      -0.38431070      -0.43232741        1       0.00203888      -0.00435684       0.00211463 
