13
Properties=species:S:1:pos:R:3:Z:I:1:forces:R:3 magmom=0 energy=-8809.14230516 dipole="-0.4104344 0.6274002 -0.7572797" pbc="F F F"
C      -0.37940782      -0.29844134       0.35267077        6      -0.00769768       0.01182291       0.01198268 
C      -0.74130432       1.17737051       0.14729843        6       0.00387424       0.00599262      -0.00071903 
C       1.11484035      -0.41406414       0.56864850        6      -0.01738436       0.01812998      -0.00992369 
N      -0.76736436      -1.18611597      -0.73585913        7       0.03344589      -0.01853971       0.00456515 
O       1.79265064      -0.23332815      -0.58250472        8       0.00461976      -0.02516195      -0.00714875 
H      -0.83778100      -0.66105171       1.27122920        1       0.00745579      -0.00721565       0.00622372 
H      -0.39593123       1.79374389       0.97827896        1      -0.01281124      -0.02006026       0.01122420 
H      -0.29007572       1.55112970      -0.77179345        1       0.00384282      -0.00833588      -0.00755164 
H      -1.82385236       1.28043191       0.06995548        1       0.01818716      -0.00192761      -0.00214589 
O       1.65872638      -0.59591616       1.61867785        8      -0.00298171       0.02054450      -0.00171333 
H      -1.76416469      -1.13228739      -0.89788900        1      -0.02364119       0.00283963       0.00600327 
H      -0.29771054      -0.92246742      -1.59318107        1      -0.00222596       0.02717548      -0.02149386 
H       2.73479111      -0.30536077      -0.38466827        1      -0.00468352      -0.00526403       0.01069723 
