13
Properties=species:S:1:pos:R:3:Z:I:1:forces:R:3 magmom=0 energy=-8809.14505895 dipole="-0.4186149 0.5930007 -0.7613818" pbc="F F F"
C      -0.38048284      -0.31052431       0.34819776        6       0.01359178       0.00180805       0.01192272 
C      -0.71517334       1.16894947       0.12105691        6       0.00793484      -0.01067301      -0.00438985 
C       1.11551857      -0.44414630       0.53673294        6       0.00099065       0.03331142       0.01102057 
N      -0.81061439      -1.21188121      -0.71298746        7      -0.01577850       0.01752747      -0.00549969 
O       1.77315631      -0.35671100      -0.63661457        8      -0.02051514      -0.02951256       0.01449166 
H      -0.82334071      -0.64332614       1.28554728        1      -0.00500347      -0.01078830      -0.00235858 
H      -0.34906621       1.79292129       0.93684168        1       0.00001172      -0.01993258       0.01641356 
H      -0.26668983       1.51509670      -0.80975617        1       0.00540451       0.00672333      -0.01900205 
H      -1.79538548       1.29247790       0.05319630        1      -0.00928107      -0.00058251      -0.00664666 
O       1.67778374      -0.55855928       1.58716046        8      -0.00629216       0.00772406      -0.02593431 
H      -1.81165296      -1.14130890      -0.84986985        1       0.04316121      -0.00138079       0.00025145 
H      -0.35738549      -0.97048334      -1.58661319        1      -0.02666712       0.00677414       0.00662676 
H       2.71698119      -0.43079334      -0.44895948        1       0.01244270      -0.00099877       0.00310445 
