13
Properties=species:S:1:pos:R:3:Z:I:1:forces:R:3 magmom=0 energy=-8809.14411744 dipole="-0.4248441 0.6036262 -0.7582294" pbc="F F F"
C      -0.37946730      -0.30539365       0.34926283        6       0.02952403      -0.02117962       0.01891396 
C      -0.72020156       1.17227284       0.12421377        6      -0.00199872      -0.02299497      -0.00321486 
C       1.11726665      -0.43785106       0.54349363        6      -0.02050938       0.00856594      -0.00986532 
N      -0.79935278      -1.20668421      -0.71673929        7       0.02444122       0.01715877       0.01922260 
O       1.77973838      -0.32328015      -0.62496057        8      -0.02714658      -0.01593719      -0.00144964 
H      -0.82772206      -0.64555218       1.28127263        1       0.01053150      -0.00190544       0.00963403 
H      -0.36153771       1.79929276       0.94055938        1       0.02301076      -0.02260164       0.02181386 
H      -0.27322482       1.51956770      -0.80619893        1       0.01568964       0.02422473      -0.02798440 
H      -1.80022713       1.28990049       0.05583341        1      -0.03917066       0.00060436      -0.01847729 
O       1.67541924      -0.57899603       1.59245116        8      -0.00291769       0.01887761       0.00181263 
H      -1.80067115      -1.15238716      -0.85126545        1      -0.00131342       0.00783539       0.00138037 
H      -0.35208410      -0.95328844      -1.58914353        1      -0.00983565       0.01122431      -0.02611485 
H       2.72348733      -0.40107070      -0.43784554        1      -0.00030498      -0.00387229       0.01432902 
