13
Properties=species:S:1:pos:R:3:Z:I:1:forces:R:3 magmom=0 energy=-8808.80245127 dipole="-1.4055448 -0.4400965 0.8366796" pbc="F F F"
C       0.45904510      -0.30335401      -0.05538059        6      -0.01296263       0.00309612      -0.00952188 
C      -0.89898775      -0.16347859       0.61982623        6      -0.00658814      -0.00709259       0.01277190 
C       1.28230477       0.96861039      -0.17967178        6      -0.00752243       0.00630270       0.01861175 
N      -0.77033055      -0.20118657       2.07489619        7       0.01584360       0.02839177       0.01446508 
O       0.99946402       1.97108928       0.68042204        8       0.00943168       0.01897371      -0.01188493 
H      -1.53142681      -0.99488118       0.30843328        1       0.00961541      -0.00647630      -0.01086106 
H      -1.38633893       0.74974980       0.25559646        1      -0.00973687      -0.01338640       0.01307344 
H       1.06869714      -1.02797596       0.49266108        1      -0.02649177      -0.00405170      -0.01265348 
H       0.35255678      -0.69078581      -1.06565688        1       0.01987216       0.00891941      -0.02109436 
O       2.15541433       1.09887107      -0.98122784        8      -0.00714854      -0.01809779       0.04077667 
H      -1.52020969       0.25229919       2.57373756        1      -0.00929793      -0.00544025      -0.00494223 
H       0.12144103       0.10540150       2.43436554        1       0.01457589      -0.00679322       0.00173477 
H       0.25736955       1.74897176       1.25276836        1       0.01040952      -0.00434542      -0.03047575 
