13
Properties=species:S:1:pos:R:3:Z:I:1:forces:R:3 magmom=0 energy=-8809.06456495 dipole="-1.3944857 -1.3167459 0.8075852" pbc="F F F"
C       0.44252717      -0.31262319      -0.26392618        6      -0.03178907       0.00721323       0.03044274 
C      -0.80839094      -0.30306222       0.62523172        6      -0.01033188       0.00318231      -0.02127254 
C       1.32519217       0.89405548      -0.02024678        6       0.01021957       0.01125120       0.00671454 
N      -0.46256498      -0.16799355       2.04704733        7       0.02507993      -0.00614247      -0.03781908 
O       1.91997893       0.92567131       1.18575366        8       0.03929947       0.02008299       0.00570574 
H      -1.32908054      -1.24876946       0.48555614        1      -0.00260329      -0.00128617       0.00652911 
H      -1.48058154       0.48839876       0.28552469        1      -0.00660676       0.00994528       0.00942052 
H       1.01794379      -1.21736988      -0.05960343        1       0.00896307       0.00658799       0.01731690 
H       0.15808895      -0.30223163      -1.31321692        1      -0.00920316      -0.01719436       0.01802230 
O       1.49593523       1.77278177      -0.81161366        8       0.01951683      -0.01031429      -0.02692249 
H      -1.13627046      -0.63242237       2.63928735        1      -0.00098982      -0.02856393      -0.02333827 
H      -0.45200666       0.80679053       2.32077763        1      -0.01901130       0.00533175       0.02629395 
H       1.55758724       0.22237899       1.74646847        1      -0.02254354      -0.00009354      -0.01109339 
