13
Properties=species:S:1:pos:R:3:Z:I:1:forces:R:3 magmom=0 energy=-8808.81915906 dipole="-1.608738 -0.2515084 0.5610771" pbc="F F F"
C       0.42459530      -0.29590751      -0.07134696        6       0.00814217      -0.02304701      -0.04017267 
C      -0.90712726      -0.13205429       0.64070281        6      -0.00891268      -0.01072834       0.00176517 
C       1.34542191       0.91540516      -0.11201870        6       0.03930487      -0.01781152      -0.00946896 
N      -0.72258456      -0.09509560       2.08913373        7       0.00914655       0.00292530      -0.00309540 
O       0.94418684       2.03050327       0.53255187        8      -0.00613568       0.02449197       0.01775383 
H      -1.53512507      -0.98692479       0.38846697        1      -0.01853169      -0.00494696       0.01733381 
H      -1.42712226       0.74973808       0.24137527        1       0.01631684       0.00613224       0.02399045 
H       0.99517734      -1.10848073       0.38349394        1      -0.00866436       0.01645506       0.02335261 
H       0.27012061      -0.58487544      -1.11043391        1      -0.00504553       0.02409643      -0.01236150 
O       2.38873907       0.90373169      -0.68962658        8      -0.02007759      -0.01520633       0.01412482 
H      -1.46215453       0.37624165       2.58832309        1      -0.02128226      -0.03513428      -0.01043616 
H       0.16952050       0.27709652       2.38157913        1       0.00670544       0.02919133      -0.00260370 
H       0.09608250       1.89955877       0.96796223        1       0.00903393       0.00358216      -0.02018229 
