10
Properties=species:S:1:pos:R:3:Z:I:1:forces:R:3 magmom=0 energy=-7739.55177252 dipole="-2.0902974 -0.5090049 -0.0568044" pbc="F F F"
C      -0.21427382      -0.26567843      -0.34359135        6      -0.00767048       0.00952486      -0.01426443 
C       1.02288615       0.58134508      -0.05150864        6      -0.02020939       0.02377787      -0.00605227 
N      -1.44062889       0.39640447       0.08650307        7      -0.00334166       0.02220580       0.02196694 
O       0.76083729       1.85536724       0.23871984        8       0.03131866      -0.01135682       0.03185623 
H      -0.23375092      -0.38596354      -1.42678967        1       0.00018522      -0.04424802      -0.00597031 
H      -0.04675421      -1.25159206       0.09038192        1      -0.00515532       0.00714777      -0.01034607 
O       2.13116933       0.14040146      -0.11327168        8       0.01134962      -0.00843250       0.00225964 
H      -2.21480579       0.21574408      -0.53520609        1       0.00908330      -0.00036309       0.00037050 
H      -1.71842112       0.12014136       1.01831612        1       0.01279288      -0.01593426      -0.00426705 
H      -0.20794181       1.94547088       0.25244582        1      -0.02835284       0.01767839      -0.01555317 
