10
Properties=species:S:1:pos:R:3:Z:I:1:forces:R:3 magmom=0 energy=-7739.32651123 dipole="-0.1925836 -1.1530528 -1.1383288" pbc="F F F"
C      -0.27722441      -0.13419562      -0.55545498        6       0.01339185      -0.00013725       0.01235883 
C       0.82828091       0.61997597       0.15917684        6       0.00583404       0.00325023       0.00327687 
N      -1.54591550       0.09701053       0.09512305        7      -0.00530485       0.01659724      -0.01476369 
O       1.98944420       0.71874636      -0.51415032        8       0.00293512       0.00662671       0.00492171 
H      -0.30474466       0.19631722      -1.59957781        1      -0.00828332       0.00152451       0.02129342 
H       0.03813961      -1.18607155      -0.56153139        1       0.00293327       0.00346914      -0.01454962 
O       0.71954116       1.07711930       1.25467032        8      -0.00241601       0.00558953      -0.00570255 
H      -2.12822855      -0.72629635       0.09792802        1      -0.00774838      -0.00134566       0.00941116 
H      -1.38550502       0.39438144       1.05043566        1      -0.01241992      -0.01978896      -0.00061239 
H       1.90666394       0.34653283      -1.39656664        1       0.01107822      -0.01578539      -0.01563370 
