13
Properties=species:S:1:pos:R:3:Z:I:1:forces:R:3 magmom=0 energy=-8809.06781399 dipole="-1.5055448 -1.1805152 0.9688641" pbc="F F F"
C       0.47097131      -0.33604898      -0.16657634        6      -0.01929654       0.00724671       0.02027958 
C      -0.83330392      -0.19413466       0.62855532        6      -0.00887154      -0.00294052      -0.01435432 
C       1.33238186       0.91025049      -0.09975834        6       0.01849266      -0.01557472      -0.00788897 
N      -0.58364995       0.21786644       2.01780377        7       0.00804956      -0.01834302      -0.04428242 
O       1.82327777       1.18300502       1.12212035        8       0.00100705       0.02242845      -0.02598748 
H      -1.32571305      -1.16495648       0.64332301        1      -0.01007142       0.00655606      -0.01454031 
H      -1.49912919       0.49801788       0.10877548        1      -0.00221105       0.01184914      -0.00463894 
H       1.04243060      -1.17274943       0.24049747        1       0.00914099       0.01496408       0.00508127 
H       0.25319780      -0.53436010      -1.21294462        1      -0.00100931       0.00577300       0.00895757 
O       1.57714177       1.61172028      -1.03605694        8       0.00692532      -0.03533442       0.02134623 
H      -1.26211501      -0.18721575       2.64564109        1      -0.00414770      -0.02801860       0.03709999 
H      -0.65579763       1.22323098       2.11335228        1      -0.01523497       0.00640549       0.01681964 
H       1.39206824       0.60604427       1.77396405        1       0.01722696       0.02498824       0.00210815 
