13
Properties=species:S:1:pos:R:3:Z:I:1:forces:R:3 magmom=0 energy=-8808.81143919 dipole="-1.5037912 -0.391921 0.6698829" pbc="F F F"
C       0.39952730      -0.29548100      -0.13669466        6      -0.01979379       0.00287609       0.00514030 
C      -0.90167429      -0.22810576       0.64724500        6       0.00960564      -0.01514251      -0.01943178 
C       1.34021999       0.89648049      -0.02901048        6      -0.01827880       0.02190822      -0.03227434 
N      -0.66694942      -0.44392607       2.07245128        7      -0.01581774       0.00520006      -0.02758876 
O       1.04391203       1.84515095       0.88240042        8       0.02187937       0.03530932       0.02428387 
H      -1.55921904      -1.01565823       0.27728810        1      -0.02607942       0.01483342      -0.00646257 
H      -1.40804315       0.72216789       0.43171342        1       0.02371596      -0.02089551       0.02999938 
H       0.96698888      -1.17562683       0.17352346        1       0.01902951      -0.01156909      -0.01640744 
H       0.19726788      -0.42042618      -1.19903199        1       0.02385238       0.00383259      -0.01666049 
O       2.30719433       1.01319870      -0.71709505        8      -0.00754974      -0.04370151       0.00991068 
H      -1.33743021      -0.00110793       2.68076446        1      -0.00703937      -0.01183880       0.02326658 
H       0.27322364      -0.24629569       2.37978194        1       0.01232500       0.03235605       0.03143390 
H       0.25339739       1.61957914       1.38266089        1      -0.01584905      -0.01316837      -0.00520926 
