10
Properties=species:S:1:pos:R:3:Z:I:1:forces:R:3 magmom=0 energy=-7739.32683504 dipole="-0.2064502 -1.2702366 -1.0742734" pbc="F F F"
C      -0.24889812      -0.18347232      -0.51654951        6      -0.01101615       0.00634199      -0.01449948 
C       0.84581225       0.60231745       0.17888002        6      -0.01256467       0.00852151      -0.00880068 
N      -1.53743205       0.12682894       0.05846531        7      -0.00579419      -0.01687122       0.00443721 
O       2.03180051       0.62596108      -0.45899035        8      -0.00097527      -0.00984614       0.01611105 
H      -0.22986142       0.07388751      -1.57983062        1      -0.01354987      -0.00595390      -0.02346641 
H       0.03837146      -1.24099031      -0.43856229        1       0.02528706       0.01147458       0.00503947 
O       0.70770377       1.14938848       1.22853972        8       0.00055855      -0.01206207       0.00346477 
H      -2.16559520      -0.66242854       0.02539746        1       0.00584936       0.02013328       0.00890250 
H      -1.42013510       0.41715106       1.02179030        1       0.00598244       0.00068792       0.00310677 
H       1.97526609       0.17650185      -1.30723826        1       0.00622279      -0.00242589       0.00570482 
