13
Properties=species:S:1:pos:R:3:Z:I:1:forces:R:3 magmom=0 energy=-8808.81076979 dipole="-1.4832039 -0.3876764 0.7009776" pbc="F F F"
C       0.40286394      -0.29865889      -0.12811767        6       0.00982352      -0.00735114      -0.01431626 
C      -0.89950499      -0.21306022       0.65111965        6      -0.00554937       0.00453018       0.02403550 
C       1.34142364       0.89763187      -0.04895269        6       0.04265867      -0.01021093      -0.01477176 
N      -0.66987008      -0.40374369       2.08118712        7       0.01608914       0.00639716       0.02628588 
O       1.06634075       1.85467389       0.86196705        8      -0.01546580      -0.02892358      -0.00548848 
H      -1.56585040      -0.99923711       0.29302981        1       0.00172182       0.01121505       0.00018939 
H      -1.39582196       0.73809121       0.42332355        1       0.00147293       0.00677794       0.00327836 
H       0.97431629      -1.17080402       0.20221473        1      -0.01508549       0.02487877      -0.01535514 
H       0.20765048      -0.44739026      -1.18934834        1       0.00107554      -0.00093470       0.01335231 
O       2.29534143       1.00340229      -0.75736119        8      -0.03387064       0.00477793       0.03416642 
H      -1.33155605       0.05863149       2.68544148        1      -0.01588788      -0.02085761      -0.02427862 
H       0.27300603      -0.21830426       2.38939683        1       0.00378405       0.00907276      -0.00083273 
H       0.28756097       1.63028276       1.38260688        1       0.00923350       0.00062817      -0.02626480 
