13
Properties=species:S:1:pos:R:3:Z:I:1:forces:R:3 magmom=0 energy=-8808.8144134 dipole="-1.5477749 -0.4005123 0.7179402" pbc="F F F"
C       0.44263142      -0.29768207      -0.07722567        6       0.01790995      -0.01444091      -0.00968051 
C      -0.89893695      -0.19620146       0.63035080        6      -0.00454165      -0.01438676      -0.03029289 
C       1.27905314       0.96863024      -0.15005373        6       0.01810849       0.01487352      -0.00102741 
N      -0.73507576      -0.24053909       2.08077241        7       0.00453723      -0.00785940      -0.02590603 
O       0.89690085       2.01433992       0.61242655        8       0.00183890       0.03057865       0.03872195 
H      -1.50926740      -1.04609460       0.32785437        1      -0.02957340      -0.02677264       0.01561632 
H      -1.42479700       0.69775337       0.26853317        1      -0.02207950       0.00883863       0.04104422 
H       1.05848922      -1.05705993       0.40869828        1       0.01447315      -0.01975739       0.01390514 
H       0.31803827      -0.62239411      -1.10871315        1      -0.03370665       0.00268120      -0.00314667 
O       2.24332166       1.05986360      -0.84480626        8       0.03726028      -0.01182800       0.00051150 
H      -1.53562732       0.09941425       2.59277989        1       0.02584946      -0.00245839      -0.00252919 
H       0.10682612       0.19798745       2.42711257        1      -0.02032699       0.02354323      -0.01964647 
H       0.10071103       1.81254403       1.11349560        1      -0.00974926       0.01698826      -0.01757005 
