13
Properties=species:S:1:pos:R:3:Z:I:1:forces:R:3 magmom=0 energy=-8809.20365867 dipole="-1.8932707 -1.3980405 1.0937735" pbc="F F F"
C       0.40784834      -0.32238343      -0.19898286        6       0.00801922      -0.00214337       0.01986712 
C      -0.84405519      -0.11654918       0.65062770        6       0.00345114      -0.00847811      -0.00123624 
C       1.41602922       0.81421378      -0.09170872        6      -0.01557677       0.01484936       0.01300978 
N      -0.49664352      -0.14582458       2.07850985        7       0.01075755      -0.03792892       0.01953900 
O       1.56672037       1.33536131       1.12783560        8       0.01977338       0.00015823       0.01133851 
H      -1.59663294      -0.86029841       0.38310259        1      -0.01734775      -0.02521759      -0.00735937 
H      -1.26466986       0.86644900       0.44035699        1      -0.03971234       0.01638765      -0.02253526 
H       0.91280389      -1.24164266       0.11302406        1      -0.00605891      -0.00598512      -0.00553996 
H       0.15477006      -0.43390352      -1.25080563        1      -0.00129717       0.02123947       0.02562655 
O       2.04083973       1.21367105      -1.03029118        8       0.02436028      -0.01149777      -0.02779234 
H      -0.27860942      -1.08758741       2.38308136        1       0.00053428       0.01519301      -0.02321300 
H      -1.25724959       0.19008110       2.65373645        1      -0.00933614       0.00827798       0.00711481 
H       0.94694146       0.89382019       1.75259212        1       0.02243319       0.01514514      -0.00881960 
