10
Properties=species:S:1:pos:R:3:Z:I:1:forces:R:3 magmom=0 energy=-7739.32651667 dipole="-0.2034399 -1.1935088 -1.1135858" pbc="F F F"
C      -0.26260579      -0.15719112      -0.53750765        6      -0.00790367       0.00012501      -0.00662656 
C       0.83907891       0.60916506       0.16805459        6      -0.01777573      -0.00932179      -0.00498090 
N      -1.54085397       0.11127185       0.07895017        7      -0.01639526      -0.00434840      -0.03578585 
O       2.01158835       0.67509245      -0.49133309        8      -0.02664090       0.00227615       0.01922090 
H      -0.27340642       0.13743235      -1.59133571        1       0.01381613       0.01399637      -0.01822917 
H       0.04187771      -1.21196611      -0.50578369        1       0.00038335      -0.00298053       0.00437278 
O       0.71584841       1.10036349       1.24689003        8       0.03392252       0.02222606       0.00121068 
H      -2.14511300      -0.69607815       0.06395599        1      -0.01048671       0.00963027       0.02691009 
H      -1.40552375       0.41237264       1.03633862        1       0.01711203      -0.02676858       0.00974206 
H       1.93697751       0.27407337      -1.36220413        1       0.01396814      -0.00483460       0.00416601 
