13
Properties=species:S:1:pos:R:3:Z:I:1:forces:R:3 magmom=0 energy=-8809.09047291 dipole="-1.6402646 -1.3952845 0.9401376" pbc="F F F"
C       0.43483042      -0.29970305      -0.25278629        6      -0.00579738       0.01852681       0.00605958 
C      -0.82499323      -0.27330674       0.62101189        6       0.01169605      -0.00395878       0.00688120 
C       1.33945280       0.89823175      -0.03129250        6       0.00267189       0.01072536       0.01414559 
N      -0.49699160      -0.20051146       2.05636067        7      -0.02982727       0.01043626       0.01999161 
O       1.79688972       1.02880251       1.22214720        8       0.01813178       0.01304470       0.01504368 
H      -1.39138801      -1.18251686       0.42559601        1      -0.02649388       0.01717651      -0.01505499 
H      -1.45373163       0.56662738       0.32020569        1       0.01201497      -0.00630625       0.02553532 
H       1.00536337      -1.20307033      -0.02363201        1      -0.00890759       0.01407268      -0.01049756 
H       0.16288796      -0.31155861      -1.30513006        1      -0.00094560      -0.02937856      -0.00216873 
O       1.64308326       1.67448202      -0.88862422        8       0.00775008      -0.02684078      -0.02246502 
H      -0.96192658      -0.92212804       2.58863294        1       0.03729730       0.00103266      -0.02786042 
H      -0.77025007       0.68873968       2.45418446        1      -0.02365492      -0.03311761      -0.01247191 
H       1.32526842       0.39835341       1.79752978        1       0.00606451       0.01458690       0.00286159 
