10
Properties=species:S:1:pos:R:3:Z:I:1:forces:R:3 magmom=0 energy=-7739.32357784 dipole="-0.2690164 -0.6585491 -1.4390111" pbc="F F F"
C      -0.20979474      -0.31205115      -0.43086851        6      -0.00941224       0.00715625       0.00341715 
C       0.82526951       0.61970266       0.17131253        6      -0.00369987      -0.02218322       0.00647234 
N      -1.44065276      -0.30454544       0.32715211        7       0.00644185      -0.01015370      -0.01099064 
O       2.03275605       0.59083770      -0.42419214        8      -0.00031465       0.01504065       0.02081462 
H      -0.34399785      -0.00005229      -1.47257524        1      -0.00362418      -0.00715194      -0.00634908 
H       0.23166623      -1.31595298      -0.45658052        1      -0.00311412       0.02449948      -0.00993536 
O       0.62042327       1.33750144       1.10045445        8      -0.00756809       0.01006967      -0.01568311 
H      -2.24581032      -0.18072812      -0.26711174        1      -0.01311278       0.01116394       0.02968395 
H      -1.41792323       0.44633352       1.00756186        1       0.01220755      -0.01084620      -0.00964102 
H       2.03923940      -0.03620218      -1.15306567        1       0.02219659      -0.01759493      -0.00778885 
