10
Properties=species:S:1:pos:R:3:Z:I:1:forces:R:3 magmom=0 energy=-7739.24335051 dipole="-0.7258635 -0.7445844 -1.3189453" pbc="F F F"
C      -0.24305688      -0.21159486      -0.50145380        6       0.00390833       0.02704816       0.01381336 
C       0.88433617       0.57865599       0.14486764        6      -0.00871974      -0.02847795      -0.02339041 
N      -1.48827387       0.22012121       0.11594769        7       0.01100134      -0.01407710      -0.00109776 
O       1.66432976       1.32103550      -0.66088170        8      -0.00835681      -0.00128313       0.00825365 
H      -0.29678547      -0.03665852      -1.57643249        1       0.00960117       0.02031439      -0.00861839 
H       0.00513471      -1.26925093      -0.34522473        1      -0.02392535       0.01679239      -0.02865253 
O       1.08398799       0.53707753       1.32013544        8      -0.00032129       0.03914546      -0.00585661 
H      -2.26102160      -0.36025961      -0.17956868        1       0.00043210      -0.02151247       0.02375653 
H      -1.40548028       0.15158377       1.12328667        1      -0.00803958      -0.00725457       0.00453959 
H       1.31887966       1.33153061      -1.55747661        1       0.02441983      -0.03069512       0.01725262 
