10
Properties=species:S:1:pos:R:3:Z:I:1:forces:R:3 magmom=0 energy=-7739.32641871 dipole="-0.1781781 -1.1203612 -1.1560596" pbc="F F F"
C      -0.29145533      -0.10909246      -0.57001662        6       0.01778808       0.01181967       0.01572975 
C       0.81833137       0.63275031       0.15368114        6       0.00650525       0.00595709      -0.01423903 
N      -1.55300203       0.07904088       0.10913655        7       0.01162401       0.00629072       0.00553589 
O       1.96970656       0.76189368      -0.53109163        8       0.00371365      -0.01045308      -0.00938705 
H      -0.34107273       0.26325133      -1.59958961        1       0.00672148      -0.00957407       0.02746375 
H       0.03445691      -1.15648332      -0.62347788        1      -0.00205452       0.02206032      -0.01301354 
O       0.72054884       1.06109831       1.26174729        8      -0.02475587      -0.00157963      -0.00116888 
H      -2.10511032      -0.76472336       0.12721850        1      -0.00615167       0.00172614       0.00468136 
H      -1.37852457       0.37898590       1.06148239        1      -0.01986589      -0.01729000      -0.00376430 
H       1.88343211       0.40384150      -1.41919521        1       0.00647548      -0.00895721      -0.01183798 
