10
Properties=species:S:1:pos:R:3:Z:I:1:forces:R:3 magmom=0 energy=-7739.32638061 dipole="-0.1846332 -1.1348098 -1.1492145" pbc="F F F"
C      -0.28487249      -0.12074367      -0.56372222        6       0.01169132       0.00770400       0.01648905 
C       0.82290548       0.62717507       0.15598041        6       0.00074012       0.00169940      -0.00646108 
N      -1.54982504       0.08794418       0.10274722        7       0.01477438       0.01576786       0.00276718 
O       1.97711421       0.74615743      -0.52534034        8       0.01118466      -0.00804041      -0.01512518 
H      -0.32468069       0.23243480      -1.60029687        1       0.00142753      -0.00681126       0.02703309 
H       0.03547613      -1.17085340      -0.59479839        1       0.00357517       0.01983581      -0.01565930 
O       0.72128123       1.06611671       1.25957620        8      -0.01916994       0.00090950      -0.00344368 
H      -2.11591910      -0.74646468       0.11350200        1      -0.01272516      -0.00339129       0.00818824 
H      -1.38008284       0.38490166       1.05692282        1      -0.02231353      -0.01998313      -0.00631628 
H       1.89166368       0.38207927      -1.41114353        1       0.01081535      -0.00769048      -0.00747204 
