10
Properties=species:S:1:pos:R:3:Z:I:1:forces:R:3 magmom=0 energy=-7739.32652211 dipole="-0.1903777 -1.1514479 -1.1380493" pbc="F F F"
C      -0.27819146      -0.13298425      -0.55621860        6       0.01794301       0.00360140       0.01429369 
C       0.82789122       0.62042868       0.15903557        6       0.00178743      -0.00379824      -0.00887961 
N      -1.54703345       0.09604784       0.09553010        7       0.00991093       0.01613810      -0.01668039 
O       1.98893290       0.71981637      -0.51469175        8      -0.00032694       0.00688475       0.00832837 
H      -0.30583638       0.20000840      -1.59949599        1      -0.01175550       0.00140670       0.01905069 
H       0.03761260      -1.18469595      -0.56504373        1       0.00147998       0.00471047      -0.01320606 
O       0.71942107       1.07674452       1.25478813        8      -0.00220904       0.00838714       0.00140012 
H      -2.12650330      -0.72922878       0.10075917        1      -0.00951149      -0.00200484       0.00979986 
H      -1.38521593       0.39468489       1.05025521        1      -0.01615769      -0.01915014       0.00023006 
H       1.90627154       0.34840272      -1.39746987        1       0.00883930      -0.01617533      -0.01433678 
