10
Properties=species:S:1:pos:R:3:Z:I:1:forces:R:3 magmom=0 energy=-7739.32661463 dipole="-0.1998083 -1.1783677 -1.1227666" pbc="F F F"
C      -0.26787463      -0.14925795      -0.54399851        6      -0.00045617      -0.00002206      -0.00169029 
C       0.83515955       0.61280806       0.16412128        6      -0.00530881      -0.00406599       0.00192056 
N      -1.54266155       0.10653712       0.08512430        7      -0.00845333       0.00401581      -0.03846571 
O       2.00386392       0.69034513      -0.50006452        8      -0.01517337       0.00538122       0.01311792 
H      -0.28459091       0.15745814      -1.59463508        1       0.00247536       0.01328427      -0.00740041 
H       0.04145701      -1.20286753      -0.52590413        1      -0.00416277      -0.00395539       0.00172511 
O       0.71713822       1.09167276       1.24910821        8       0.02190724       0.02068854       0.00482365 
H      -2.13948656      -0.70602083       0.07740574        1      -0.01656608      -0.00616741       0.01566908 
H      -1.39879314       0.40637151       1.04162875        1       0.01490263      -0.01858301       0.01391826 
H       1.92677559       0.30077670      -1.37571563        1       0.01083530      -0.01057593      -0.00361811 
