13
Properties=species:S:1:pos:R:3:Z:I:1:forces:R:3 magmom=0 energy=-8809.20483692 dipole="-1.9770958 -1.4564339 0.8599257" pbc="F F F"
C       0.27588670      -0.21493556      -0.35433400        6      -0.00488196      -0.00984784      -0.00442677 
C      -0.86928956      -0.18875462       0.65452184        6       0.00252559       0.00312667      -0.00364289 
C       1.43885038       0.71818875      -0.03644093        6      -0.01915534       0.02954218       0.00644627 
N      -0.39546072      -0.65472085       1.96586514        7       0.00644622       0.02797515      -0.02386519 
O       1.72373509       0.87580918       1.25693731        8       0.01586381      -0.02162390       0.01585877 
H      -1.70275157      -0.78247047       0.27019405        1       0.00750495       0.01248888       0.01472394 
H      -1.22666999       0.83479975       0.77700888        1       0.00859823      -0.01295260       0.00316991 
H       0.68269234      -1.22901258      -0.41794167        1      -0.00214193       0.00039569      -0.00002910 
H      -0.07917133       0.04837810      -1.34780168        1       0.00574235      -0.00493446       0.00205369 
O       2.06913927       1.26666817      -0.89296596        8      -0.00040161       0.00191167      -0.01815677 
H      -0.22046312      -1.65143823       1.95344054        1       0.00173087      -0.04234191       0.00861875 
H      -1.06826648      -0.47050454       2.69730794        1      -0.02527647       0.00145982       0.00490042 
H       1.10100804       0.33761075       1.79758719        1       0.00344523       0.01480066      -0.00565108 
