10
Properties=species:S:1:pos:R:3:Z:I:1:forces:R:3 magmom=0 energy=-7739.5517698 dipole="-2.090255 -0.5089952 -0.0568378" pbc="F F F"
C      -0.21427164      -0.26567365      -0.34359924        6      -0.00779934       0.00969913      -0.01413973 
C       1.02288223       0.58133706      -0.05147748        6      -0.02030436       0.02375278      -0.00640688 
N      -1.44062248       0.39640341       0.08651340        7      -0.00360561       0.02222688       0.02155310 
O       0.76082881       1.85537092       0.23870262        8       0.03196082      -0.01151196       0.03187263 
H      -0.23375165      -0.38589403      -1.42680729        1       0.00023855      -0.04437940      -0.00585466 
H      -0.04676644      -1.25159214       0.09035725        1      -0.00508981       0.00696553      -0.01046655 
O       2.13115604       0.14037085      -0.11322261        8       0.01151818      -0.00828008       0.00244234 
H      -2.21480758       0.21569721      -0.53518077        1       0.00919118      -0.00027763       0.00054497 
H      -1.71839004       0.12015027       1.01833270        1       0.01275118      -0.01597704      -0.00408466 
H      -0.20794078       1.94547063       0.25238064        1      -0.02886089       0.01778175      -0.01546056 
