13
Properties=species:S:1:pos:R:3:Z:I:1:forces:R:3 magmom=0 energy=-8808.73702966 dipole="-1.120376 -0.7490398 1.1334591" pbc="F F F"
C       0.47599225      -0.32343085      -0.10528760        6      -0.03904529      -0.00437792       0.00717281 
C      -0.85213551      -0.18389469       0.66213864        6       0.03562305      -0.00380570      -0.00843697 
C       1.28054752       0.95367946      -0.19105994        6       0.01000082      -0.00933820       0.00787102 
N      -0.75434105      -0.73004809       2.01757262        7      -0.01491204       0.00771892      -0.02994595 
O       1.54440851       1.56623275       0.98884282        8       0.01658963       0.04178357      -0.01066072 
H      -1.60970136      -0.76914821       0.14303396        1       0.03248481       0.00286148       0.01578082 
H      -1.18505245       0.86095978       0.63226757        1       0.00316616      -0.03411844      -0.00163908 
H       1.08284581      -1.08881289       0.38487308        1      -0.01409962      -0.01491147       0.00044907 
H       0.30698773      -0.64372621      -1.12815054        1      -0.01629396       0.00471283      -0.04265358 
O       1.67669208       1.43627588      -1.20610442        8      -0.01033455       0.00232777       0.00193722 
H      -1.66556499      -0.75318569       2.45740976        1       0.00894009      -0.00349562       0.01044598 
H      -0.16335494      -0.17607179       2.62492290        1      -0.02327820       0.03038813       0.01756974 
H       1.21178409       1.05074989       1.72632878        1       0.01115915      -0.01974530       0.03210974 
