22
Properties=species:S:1:pos:R:3:Z:I:1:forces:R:3 magmom=0 energy=-12017.8189653 dipole="-0.038734 0.5817607 -0.2232831" pbc="F F F"
C      -0.29605111      -0.37286278       0.77209874        6      -0.00270835      -0.00043755       0.01726270 
C       1.08521516       0.30569258       0.90139513        6      -0.01402213      -0.00638102      -0.01488684 
C      -1.43840073       0.64336618       0.55668305        6      -0.00463719       0.00173899       0.00629530 
C      -0.25770760      -1.46479428      -0.29078967        6      -0.01047385       0.00264289       0.01010480 
C      -1.75544631       1.01046950      -0.89458019        6      -0.01365698      -0.02152672      -0.01351624 
C       1.13134819       1.01344644       2.25054497        6       0.03622638       0.00253002       0.02617604 
N       1.40612668       1.12376050      -0.25338548        7       0.00829752      -0.00103256       0.00053818 
O       1.09679209       2.35741207       2.15763932        8       0.00941312      -0.01210820       0.01166813 
H      -0.46841671      -0.85039833       1.73954074        1       0.01216723       0.00099414      -0.01647213 
H       1.82958607      -0.49045818       0.97567243        1      -0.01807789       0.00978942       0.01016136 
H      -2.34310922       0.22697613       1.00465912        1      -0.00003569       0.00418529      -0.01787071 
H      -1.22314825       1.55407762       1.12368862        1      -0.00345299      -0.00543511       0.01042793 
H       0.01689508      -1.06021429      -1.26388254        1       0.01235636       0.00944644       0.00168603 
H      -1.23165122      -1.94683307      -0.38047610        1      -0.01705963       0.00160751      -0.00930169 
H       0.47052474      -2.23075589      -0.02208087        1      -0.00298567       0.00689225      -0.01361723 
H      -2.52299612       1.78410146      -0.92716267        1       0.01403452      -0.01466537       0.01023546 
H      -0.88529092       1.37048336      -1.44146390        1      -0.00182769      -0.01219665       0.02580709 
H      -2.13998148       0.14667830      -1.43579728        1      -0.00077514      -0.00318292      -0.01824763 
O       1.17188506       0.44637801       3.30651318        8      -0.01474913       0.02544575      -0.02219016 
H       2.36884182       1.43359703      -0.21922234        1      -0.00840777      -0.00489255       0.00773192 
H       0.83356419       1.95918524      -0.26126109        1       0.01149689       0.01009143      -0.00632121 
H       1.09762806       2.70173453       3.06028846        1       0.00887802       0.00649445      -0.00567098 
