22
Properties=species:S:1:pos:R:3:Z:I:1:forces:R:3 magmom=0 energy=-12017.9001042 dipole="-0.4136682 0.0090919 0.5444593" pbc="F F F"
C      -0.52309358      -0.05665289       0.86736280        6       0.01018347       0.02583753      -0.00297508 
C       0.89872122       0.50640977       0.92663617        6       0.03426751      -0.00514072       0.00647908 
C      -1.45896700       0.87755083       0.08385290        6       0.01467910       0.00951025      -0.03147421 
C      -0.51464370      -1.47212087       0.29167021        6      -0.00208815       0.01642467      -0.00119628 
C      -0.93533996       1.29421488      -1.28880058        6       0.00679383      -0.01147679      -0.02978608 
C       1.84669849      -0.38915841       1.70590918        6       0.02722809      -0.01721719      -0.01162725 
N       0.90520920       1.85683438       1.48195311        7      -0.01625246      -0.01605253      -0.03567550 
O       1.35525282      -0.74105392       2.91195645        8      -0.00083006       0.02521970       0.00028503 
H      -0.89013607      -0.11248809       1.89644496        1      -0.00427544      -0.00628079       0.00350524 
H       1.31801910       0.55158638      -0.07874551        1      -0.00631406       0.00877255      -0.01026138 
H      -2.41903591       0.36883373      -0.03204798        1      -0.00059598       0.00021222       0.02495821 
H      -1.64469351       1.77577293       0.67244612        1       0.00847616      -0.01063280       0.00610982 
H      -0.20279109      -1.47026824      -0.75337859        1       0.01652803      -0.00593642      -0.00238712 
H      -1.51081175      -1.90950897       0.34615330        1      -0.00949210       0.00576231      -0.02547727 
H       0.16194821      -2.12947280       0.83957256        1      -0.00052080       0.00484596       0.00451038 
H      -1.68841504       1.86169657      -1.83434756        1      -0.01583980      -0.00323512       0.03078696 
H      -0.05304098       1.92805769      -1.19584875        1      -0.03256714      -0.00404507       0.01539474 
H      -0.67271024       0.43236004      -1.90368161        1       0.01014748      -0.00351490       0.00237719 
O       2.94328972      -0.71262029       1.34281354        8      -0.02648288      -0.03576996       0.01549254 
H       1.83872927       2.24773798       1.47393334        1       0.00117499       0.01808293       0.01309082 
H       0.57912148       1.84627255       2.44104082        1      -0.01160632       0.00466979       0.02564208 
H       2.03806202      -1.25397379       3.36268923        1      -0.00261337      -0.00003553       0.00222802 
