22
Properties=species:S:1:pos:R:3:Z:I:1:forces:R:3 magmom=0 energy=-12017.7959335 dipole="0.1892176 -0.540786 0.0016425" pbc="F F F"
C      -0.46366149      -0.18839970       0.97352102        6       0.00054363      -0.01998853       0.01869424 
C       1.03351770       0.18886886       0.90332575        6      -0.00335262       0.00503803       0.00884902 
C      -1.39122122       0.80644268       0.25126793        6       0.00006813      -0.01348528       0.00091151 
C      -0.71564360      -1.63991348       0.57074743        6      -0.00968807      -0.00373232      -0.00907255 
C      -1.68962321       0.54808541      -1.22501276        6      -0.00343402       0.00342841      -0.01991762 
C       1.56839332       0.11797896      -0.51757746        6       0.04315242       0.01572955      -0.01868503 
N       1.78936870      -0.59034278       1.87203618        7       0.00719544      -0.00362860       0.00120934 
O       2.11213886      -1.07828744      -0.81808414        8      -0.01668214      -0.02329677      -0.00807692 
H      -0.67746244      -0.10026520       2.04020646        1       0.00215839      -0.01027824       0.02446605 
H       1.11398443       1.24088652       1.17712253        1      -0.01584170       0.00984403       0.02090574 
H      -2.34479815       0.80013671       0.78504311        1       0.02117926       0.02154528       0.01234916 
H      -0.97920630       1.81202959       0.36944637        1      -0.03095156      -0.01293003      -0.02807784 
H      -0.40293684      -1.83556008      -0.45567090        1      -0.01879327      -0.00049828      -0.00772966 
H      -1.77762872      -1.87706032       0.64311050        1      -0.00164453       0.01814165       0.02476091 
H      -0.18191180      -2.33026089       1.22455887        1      -0.00349058       0.01392952      -0.01491255 
H      -2.30932448       1.35654510      -1.61278856        1      -0.00359430      -0.01529971      -0.01589209 
H      -0.79107120       0.50889288      -1.83691212        1       0.01853812      -0.00110599       0.01597961 
H      -2.24520270      -0.38004166      -1.36401558        1       0.03690135      -0.00780978       0.01757797 
O       1.52760095       1.01647015      -1.31124533        8       0.00524485       0.02404470      -0.00764770 
H       2.73355112      -0.23708497       1.96219341        1      -0.00853601       0.00264464      -0.01122528 
H       1.86715488      -1.55445640       1.57463020        1      -0.00903933      -0.01815605      -0.00705583 
H       2.41375885      -1.03685454      -1.73480431        1      -0.00993346       0.01586381       0.00258962 
