22
Properties=species:S:1:pos:R:3:Z:I:1:forces:R:3 magmom=0 energy=-12017.8910237 dipole="-0.0105211 -0.2116534 0.5039884" pbc="F F F"
C      -0.41523720      -0.26127403       0.79165448        6      -0.02666034      -0.03176228       0.01543438 
C       1.02469633       0.30878228       0.80841433        6       0.00876037      -0.03596279      -0.02484411 
C      -1.49067014       0.72903848       0.32256056        6      -0.01392834       0.02553172       0.00897567 
C      -0.46370934      -1.56991296       0.01214843        6      -0.00051366      -0.01844468      -0.01918706 
C      -1.45858734       1.15908072      -1.14368628        6       0.00433185       0.02766050       0.01569540 
C       1.03077596       1.60446340       1.60188093        6      -0.02251839       0.03016326      -0.02059937 
N       1.59780945       0.45940164      -0.51568153        7      -0.00404779       0.00223136       0.00471258 
O       0.81528257       1.40247962       2.91431639        8      -0.01381459      -0.00759370      -0.01305174 
H      -0.64758325      -0.48297659       1.83531541        1      -0.01202217       0.01134571       0.04442563 
H       1.63464965      -0.40516728       1.36458969        1       0.00278661      -0.04399461       0.00880932 
H      -2.45640233       0.25503495       0.51660104        1       0.01492124       0.01253428       0.01914202 
H      -1.45985766       1.61949997       0.95597420        1      -0.02234253       0.01402938       0.00402481 
H      -0.11537819      -1.42966213      -1.00766299        1       0.00502085       0.00584592      -0.03299538 
H      -1.48631567      -1.94952261      -0.01553450        1       0.01921884      -0.01554330       0.00880994 
H       0.16739323      -2.32973042       0.47469845        1       0.01507865       0.01934457       0.01510904 
H      -2.36506984       1.71615428      -1.37707627        1      -0.01655102      -0.00121264      -0.03144490 
H      -0.62021960       1.81575922      -1.37001609        1       0.01556052      -0.01589785       0.04279504 
H      -1.41017068       0.30429365      -1.81727808        1       0.01675470      -0.00254981       0.00795916 
O       1.17513845       2.69905992       1.13383425        8       0.01676416       0.01175601      -0.02260679 
H       2.60749709       0.46047808      -0.46382466        1       0.01228962       0.01461107       0.00153181 
H       1.32978137       1.35131253      -0.91154120        1       0.00440996       0.02215983      -0.01233101 
H       0.79764470       2.26775015       3.34458563        1      -0.00349860      -0.02425193      -0.02036437 
