22
Properties=species:S:1:pos:R:3:Z:I:1:forces:R:3 magmom=0 energy=-12017.9067437 dipole="-0.0564462 -0.0943184 0.5190039" pbc="F F F"
C      -0.48815421      -0.13827919       0.78035183        6      -0.00698759      -0.01010418      -0.02652330 
C       0.96982009       0.38764940       0.73952142        6      -0.01306547      -0.01789838      -0.00633623 
C      -1.51399724       0.78778659       0.11082226        6       0.00225635       0.00794301      -0.01528434 
C      -0.52716340      -1.55185560       0.21134946        6      -0.01792296      -0.02090091      -0.00336475 
C      -1.21814673       1.18160748      -1.33633255        6       0.00633715       0.01177319      -0.01618150 
C       1.00970356       1.82657357       1.22177950        6       0.03131172      -0.03540620       0.01470244 
N       1.60691166       0.20123271      -0.54893686        7       0.02434336      -0.01859463      -0.01134947 
O       0.66511378       1.92699449       2.51861326        8      -0.00396336       0.02375998       0.00025624 
H      -0.76005271      -0.18804745       1.83800741        1       0.02643485       0.00634944      -0.01132072 
H       1.52151832      -0.19699055       1.47835940        1       0.01513099      -0.02987036      -0.00334804 
H      -2.48223066       0.28391426       0.15590119        1       0.00300135      -0.00419815       0.02672004 
H      -1.61894355       1.69777463       0.70782126        1      -0.01544416       0.00318956       0.00864955 
H      -0.32301550      -1.55558646      -0.85676616        1       0.01565735       0.00614139       0.00053659 
H      -1.50329557      -2.00507637       0.38043608        1      -0.03040607       0.00694301       0.03099167 
H       0.23145767      -2.17675752       0.68411688        1      -0.02107338      -0.03077246       0.00499725 
H      -2.10217045       1.61516061      -1.80361817        1       0.01208357      -0.00464136       0.02247011 
H      -0.43163944       1.93513191      -1.37960110        1       0.00836524       0.00377381      -0.02185690 
H      -0.90808993       0.32503351      -1.93473347        1      -0.01881209       0.01285531      -0.00551702 
O       1.29935029       2.77910139       0.55383752        8      -0.02353830       0.01225465      -0.01482236 
H       2.61216392       0.16866260      -0.45034182        1       0.00697890       0.04736235       0.01411423 
H       1.39551639       0.97182015      -1.16925850        1       0.02537597       0.01224406       0.00644833 
H       0.71081856       2.86082147       2.75998968        1      -0.02606348       0.01779677       0.00601818 
