22
Properties=species:S:1:pos:R:3:Z:I:1:forces:R:3 magmom=0 energy=-12017.9069995 dipole="0.0401664 0.0932884 0.526694" pbc="F F F"
C      -0.38701896      -0.08401774       0.93658406        6       0.03277951      -0.01356303      -0.00266819 
C       1.06507026       0.18160504       0.45114908        6       0.02235394      -0.00819143      -0.00760296 
C      -1.45357113       0.75683788       0.22038478        6       0.01859679      -0.01534157       0.00301076 
C      -0.67741313      -1.58059469       0.87781671        6      -0.00628388      -0.00387897       0.01709326 
C      -1.54457316       0.57203566      -1.29314844        6       0.00705891      -0.00915277      -0.00390350 
C       1.31277712       1.67984000       0.41930454        6      -0.00253773       0.02376831      -0.00874216 
N       1.38401814      -0.46160293      -0.81094329        7      -0.00180497      -0.00600533       0.02015298 
O       1.28852695       2.22288738       1.65046633        8       0.00373041       0.00257558      -0.01637263 
H      -0.40831673       0.22468733       1.98564234        1       0.01525266       0.00831284      -0.03914417 
H       1.72320805      -0.22993677       1.22073151        1      -0.00596100      -0.01557780      -0.03707444 
H      -2.41564669       0.50766822       0.67398807        1       0.00077370      -0.01534506      -0.01186739 
H      -1.28651373       1.81422561       0.44251627        1       0.00195028       0.01632085      -0.00491137 
H      -0.53724022      -1.97218838      -0.12685812        1      -0.03066864       0.01415511      -0.00181417 
H      -1.69760509      -1.78779493       1.20046394        1      -0.01691107       0.02526330       0.02085787 
H       0.00098814      -2.12628392       1.53440152        1       0.02018172      -0.01590901      -0.00286262 
H      -2.46233961       1.01377966      -1.67690068        1      -0.03170613       0.00927978      -0.00004217 
H      -0.71923195       1.06657601      -1.80420619        1       0.01415233       0.00437545       0.00152081 
H      -1.53877897      -0.48252061      -1.56735810        1      -0.00161542       0.00274234      -0.02254498 
O       1.48759125       2.33249280      -0.57195456        8      -0.01251161      -0.01393821       0.04533030 
H       2.38512199      -0.56411653      -0.91592983        1      -0.01951303       0.02433842       0.03675721 
H       1.07300284       0.10774898      -1.58815101        1       0.00494428      -0.00517044       0.02053993 
H       1.43046044       3.17351011       1.55377447        1      -0.01226118      -0.00905825      -0.00571237 
