22
Properties=species:S:1:pos:R:3:Z:I:1:forces:R:3 magmom=0 energy=-12017.9070023 dipole="0.0401601 0.0932617 0.5266754" pbc="F F F"
C      -0.38700715      -0.08401040       0.93658523        6       0.03266746      -0.01368069      -0.00267395 
C       1.06508478       0.18160587       0.45114740        6       0.02219793      -0.00825746      -0.00729941 
C      -1.45356637       0.75683875       0.22037646        6       0.01874535      -0.01527580       0.00308784 
C      -0.67740664      -1.58059195       0.87781865        6      -0.00635176      -0.00373149       0.01707588 
C      -1.54459657       0.57202717      -1.29315330        6       0.00700055      -0.00942685      -0.00395096 
C       1.31279439       1.67984164       0.41932827        6      -0.00250960       0.02338758      -0.00877024 
N       1.38401271      -0.46159616      -0.81094692        7      -0.00160550      -0.00603284       0.02011251 
O       1.28849204       2.22289625       1.65047475        8       0.00365112       0.00222781      -0.01595061 
H      -0.40831224       0.22469980       1.98564516        1       0.01527354       0.00829037      -0.03926214 
H       1.72322312      -0.22996265       1.22071953        1      -0.00603191      -0.01547290      -0.03708971 
H      -2.41563617       0.50768719       0.67400304        1       0.00079416      -0.01531462      -0.01188822 
H      -1.28648712       1.81423078       0.44247151        1       0.00189783       0.01631452      -0.00479449 
H      -0.53722514      -1.97217831      -0.12685721        1      -0.03067409       0.01413428      -0.00183279 
H      -1.69760791      -1.78778477       1.20044987        1      -0.01681260       0.02525621       0.02085910 
H       0.00098711      -2.12628853       1.53440453        1       0.02016681      -0.01589312      -0.00282796 
H      -2.46237312       1.01378094      -1.67688574        1      -0.03151581       0.00920321      -0.00002299 
H      -0.71925321       1.06655579      -1.80422218        1       0.01407391       0.00434522       0.00149674 
H      -1.53881673      -0.48253940      -1.56735541        1      -0.00162756       0.00300788      -0.02252302 
O       1.48765211       2.33249634      -0.57191589        8      -0.01246034      -0.01370568       0.04476054 
H       2.38511581      -0.56414601      -0.91592884        1      -0.01963696       0.02437247       0.03670924 
H       1.07301249       0.10776797      -1.58814903        1       0.00495380      -0.00512004       0.02045102 
H       1.43042986       3.17350803       1.55376360        1      -0.01219629      -0.00862816      -0.00566635 
