22
Properties=species:S:1:pos:R:3:Z:I:1:forces:R:3 magmom=0 energy=-12017.7699766 dipole="-0.4945711 -0.2630458 -0.4729732" pbc="F F F"
C      -0.43356714      -0.25436077       0.74409206        6      -0.03096241       0.01935655       0.00841342 
C       1.03532715       0.18183595       0.78105848        6      -0.02056199       0.00008284      -0.01180034 
C      -1.33819259       0.83776028       0.16238241        6      -0.01060266      -0.00204958      -0.01633165 
C      -0.66744297      -1.61943179       0.09093917        6       0.00026683       0.03210953       0.01058945 
C      -2.82153969       0.48545473       0.24858030        6       0.00704601      -0.00153737       0.00347911 
C       1.75904228       0.39654035      -0.55013015        6      -0.01184924       0.00185078       0.00301482 
N       1.81479339      -0.72005896       1.62440396        7      -0.01122045      -0.00218503       0.01307344 
O       1.07813264       0.05499315      -1.65686730        8      -0.00947030       0.01461821       0.00397683 
H      -0.69327928      -0.34930295       1.80229111        1      -0.00515378      -0.03671093       0.02578318 
H       1.07265628       1.16663108       1.25556849        1      -0.00208732      -0.00896832       0.01134237 
H      -1.15768331       1.76663005       0.71037488        1       0.01418267      -0.01730599       0.00922944 
H      -1.06525139       1.02987828      -0.87655680        1      -0.01504131      -0.01161763      -0.02719435 
H      -0.57755017      -1.55571950      -0.99230301        1      -0.01577192      -0.03298155       0.01214240 
H      -1.66316331      -1.98897542       0.33339984        1       0.01370239       0.02360813      -0.01358550 
H       0.03631078      -2.37031078       0.45265255        1      -0.01070669       0.01462438      -0.02256112 
H      -3.44951964       1.34067528      -0.00084187        1       0.04432932      -0.01032123      -0.01296088 
H      -3.07749754      -0.32254713      -0.43635885        1      -0.01277077       0.00997305       0.01487532 
H      -3.08366421       0.16306625       1.25873252        1      -0.00218467       0.01018573      -0.01441726 
O       2.88037713       0.82109007      -0.60599659        8       0.01180291      -0.00766564       0.00646854 
H       2.78531830      -0.43192551       1.63317155        1       0.02775732       0.01666486       0.01945888 
H       1.78376841      -1.66260092       1.25718414        1       0.04728624      -0.01531617      -0.00309617 
H       1.66332899       0.22562840      -2.40732244        1      -0.00799006       0.00358535      -0.01989993 
