22
Properties=species:S:1:pos:R:3:Z:I:1:forces:R:3 magmom=0 energy=-12017.7959335 dipole="0.1892163 -0.5407848 0.0016422" pbc="F F F"
C      -0.46366163      -0.18839998       0.97352075        6       0.00054137      -0.01998601       0.01869377 
C       1.03351742       0.18886901       0.90332555        6      -0.00335328       0.00503787       0.00884506 
C      -1.39122172       0.80644250       0.25126823        6       0.00006716      -0.01348616       0.00090883 
C      -0.71564352      -1.63991387       0.57074708        6      -0.00968709      -0.00372887      -0.00907229 
C      -1.68962360       0.54808566      -1.22501260        6      -0.00343391       0.00342636      -0.01991212 
C       1.56839403       0.11797850      -0.51757727        6       0.04315309       0.01572533      -0.01867521 
N       1.78936871      -0.59034244       1.87203601        7       0.00718582      -0.00362196       0.00121084 
O       2.11213653      -1.07828905      -0.81808453        8      -0.01668137      -0.02330371      -0.00807316 
H      -0.67746227      -0.10026556       2.04020618        1       0.00215716      -0.01027927       0.02446857 
H       1.11398393       1.24088697       1.17712166        1      -0.01584149       0.00983905       0.02090703 
H      -2.34479878       0.80013609       0.78504319        1       0.02117972       0.02154394       0.01234999 
H      -0.97920759       1.81202969       0.36944704        1      -0.03094873      -0.01293121      -0.02807712 
H      -0.40293707      -1.83556009      -0.45567142        1      -0.01879374      -0.00049915      -0.00772869 
H      -1.77762855      -1.87706120       0.64311053        1      -0.00164273       0.01814217       0.02476183 
H      -0.18191086      -2.33026082       1.22455837        1      -0.00349212       0.01392916      -0.01491425 
H      -2.30932345       1.35654608      -1.61278867        1      -0.00359733      -0.01529555      -0.01589400 
H      -0.79107164       0.50889155      -1.83691172        1       0.01854413      -0.00110552       0.01597709 
H      -2.24520442      -0.38004054      -1.36401541        1       0.03690094      -0.00781245       0.01757745 
O       1.52760555       1.01647040      -1.31124420        8       0.00524001       0.02405987      -0.00766148 
H       2.73354989      -0.23708233       1.96219486        1      -0.00852629       0.00264577      -0.01122353 
H       1.86715752      -1.55445513       1.57462824        1      -0.00903846      -0.01816356      -0.00705588 
H       2.41375807      -1.03685596      -1.73480412        1      -0.00993284       0.01586391       0.00258720 
