22
Properties=species:S:1:pos:R:3:Z:I:1:forces:R:3 magmom=0 energy=-12017.6323196 dipole="0.0870727 0.5983864 -0.1363191" pbc="F F F"
C      -0.30703027      -0.03370252       0.75759335        6       0.00016388      -0.00903835       0.00574420 
C       1.22623799       0.24338420       0.57170953        6      -0.00282580       0.00281567       0.03104170 
C      -1.19941280       0.94368164      -0.00666789        6       0.00425584       0.00049355       0.00920162 
C      -0.61154210      -1.47490763       0.36089416        6       0.00032488       0.00436311       0.00373581 
C      -1.10206916       2.40103977       0.47633845        6      -0.00540631       0.00614093       0.00493811 
C       1.81411561       0.56217178       1.93642096        6       0.02076099       0.00826332       0.00751235 
N       1.52652444       1.18690914      -0.49013478        7      -0.00113391      -0.02669772       0.03186497 
O       2.16734699       1.85270113       2.08656185        8       0.01235029       0.01895222      -0.01317073 
H      -0.53851484       0.07413615       1.82095579        1      -0.00162273      -0.01567478      -0.00820167 
H       1.68936649      -0.70727389       0.30270477        1       0.00104176       0.01838745       0.00329163 
H      -0.96012531       0.88215002      -1.06834780        1      -0.02834112      -0.02503329       0.01717255 
H      -2.22430446       0.58741855       0.11218842        1       0.01654469       0.01632933      -0.04038643 
H      -0.34887403      -1.63716387      -0.68723673        1      -0.02496948      -0.01949663       0.01462336 
H      -1.67043988      -1.70033970       0.48998743        1       0.00867747      -0.00526876      -0.02592294 
H      -0.03905832      -2.17123867       0.97442527        1       0.00221922      -0.00546123      -0.03276357 
H      -0.74842862       3.06322212      -0.31349177        1       0.00801151       0.01146974       0.02437519 
H      -2.06838608       2.78064740       0.80394380        1       0.00262515       0.00103513       0.00903187 
H      -0.41856641       2.49731948       1.32306678        1       0.00374389       0.01905717      -0.01414914 
O       1.93567976      -0.24123270       2.81912609        8       0.00199158      -0.00376440      -0.00783873 
H       2.51517217       1.16899074      -0.70530369        1      -0.02250934       0.01150569      -0.00216600 
H       1.30365507       2.13233543      -0.20343946        1       0.01168597      -0.02459800      -0.03948073 
H       2.50825466       1.94910490       2.98498819        1      -0.00758830       0.01621991       0.02154651 
