22
Properties=species:S:1:pos:R:3:Z:I:1:forces:R:3 magmom=0 energy=-12017.8805963 dipole="-0.1096035 -0.2453686 0.4532266" pbc="F F F"
C      -0.34871910      -0.22604604       0.76431175        6      -0.01183433      -0.00692686      -0.02064971 
C       1.11607565       0.26022650       0.87795988        6      -0.02435421       0.01011889       0.01698697 
C      -1.36668390       0.85909189       0.37344901        6       0.00438754      -0.00807326       0.00925993 
C      -0.41537621      -1.44613281      -0.14697967        6      -0.01397420      -0.01098643      -0.00219824 
C      -1.31010338       1.39352295      -1.05867139        6       0.01293610       0.00918311       0.04143369 
C       1.16280367       1.41602827       1.86153545        6      -0.01037363       0.03176007      -0.01569114 
N       1.71637597       0.58356066      -0.40122360        7      -0.01723513       0.01515851       0.02347577 
O       0.93363903       1.01377786       3.12431990        8      -0.00779970       0.01770194       0.03021777 
H      -0.62196579      -0.54047652       1.77506401        1      -0.00372949       0.00142105      -0.01746967 
H       1.68025054      -0.56449557       1.32003377        1       0.00854851       0.01627179       0.01093526 
H      -2.35622199       0.42563058       0.53676625        1       0.00784176      -0.02295368       0.00501319 
H      -1.29046175       1.69696485       1.07196158        1      -0.00754881       0.00170896      -0.00890769 
H       0.03030126      -1.23472177      -1.11695719        1      -0.02490175      -0.00552535       0.00640873 
H      -1.45126941      -1.75381667      -0.29403698        1       0.00400614      -0.02704024       0.00417048 
H       0.12995009      -2.28023627       0.29639958        1      -0.00172295      -0.01111766      -0.03419218 
H      -2.21682621       1.95549384      -1.27993992        1      -0.00833644      -0.00118677      -0.00110799 
H      -0.47638987       2.07717464      -1.20874796        1       0.01275807      -0.00401246      -0.01568491 
H      -1.23091211       0.59109077      -1.79215714        1       0.02210964       0.01152086       0.02540086 
O       1.34447419       2.56578165       1.57230482        8       0.02435226      -0.01101980      -0.01080331 
H       2.71529380       0.70245079      -0.28989296        1       0.01236109      -0.01802626      -0.02915539 
H       1.36445433       1.47367387      -0.73005156        1       0.02553167       0.01749003      -0.01221516 
H       0.94250709       1.79859884       3.68752796        1      -0.00302213      -0.00546642      -0.00522726 
