22
Properties=species:S:1:pos:R:3:Z:I:1:forces:R:3 magmom=0 energy=-12017.8769418 dipole="0.1094439 -0.5642706 0.1643264" pbc="F F F"
C      -0.47500080      -0.07282958       0.94306623        6      -0.02444929       0.00694717      -0.01305133 
C       1.04686930       0.14436603       1.13928528        6       0.00119052      -0.02209956      -0.03079621 
C      -1.10963820       0.97129822       0.01982818        6      -0.01463806       0.01918778      -0.01066396 
C      -0.79067419      -1.49015771       0.46573571        6      -0.00516494       0.00482807      -0.00082754 
C      -1.23931147       2.34452958       0.67070599        6       0.01017206       0.00951581      -0.00510374 
C       1.77260381      -0.35691908      -0.10167495        6      -0.02896960      -0.00325815      -0.01814767 
N       1.47339217      -0.44473448       2.39576630        7      -0.00753760       0.01483398       0.00211982 
O       2.32044889      -1.57738262       0.06293934        8      -0.00305534       0.03969562       0.00049067 
H      -0.89409208       0.05354794       1.94445209        1       0.00757653       0.01159197       0.01014413 
H       1.24482691       1.21629227       1.17661503        1      -0.02812653      -0.01997974       0.01775558 
H      -0.53696471       1.04240174      -0.90763912        1       0.03889200      -0.01676457       0.02534172 
H      -2.10267006       0.61576587      -0.26370530        1      -0.02293686      -0.00695607       0.02797962 
H      -0.49058371      -1.62687569      -0.57615135        1       0.01205287       0.00030252       0.01321228 
H      -1.86317281      -1.67199464       0.52508573        1       0.00408836      -0.00692671      -0.00518730 
H      -0.28841504      -2.25157417       1.06336149        1      -0.00818500      -0.00820383      -0.00677028 
H      -1.69644941       3.06687821      -0.00428740        1       0.00202222      -0.02259861      -0.02563621 
H      -1.85645149       2.28894882       1.56845883        1       0.00083324      -0.00161455       0.00328073 
H      -0.26879760       2.74399519       0.96351120        1       0.01527996       0.02609984      -0.00005327 
O       1.83157483       0.23475128      -1.14424688        8       0.02146301      -0.00448375       0.03216615 
H       2.45857934      -0.28542674       2.55941503        1       0.03270186       0.00705012      -0.01288935 
H       1.34348915      -1.44820911       2.37846854        1      -0.00789730      -0.03280486       0.00376924 
H       2.71422846      -1.82849727      -0.78249224        1       0.00468789       0.00563756      -0.00713311 
