22
Properties=species:S:1:pos:R:3:Z:I:1:forces:R:3 magmom=0 energy=-12017.9286516 dipole="0.2846844 -0.1244498 -0.3527661" pbc="F F F"
C      -0.39108229      -0.10796268       0.79629678        6       0.00746355      -0.01021782      -0.00383835 
C       1.04805553       0.42489664       0.88745819        6       0.01165954      -0.02281515       0.00529457 
C      -1.35704730       0.95305714       0.25731220        6       0.00141807       0.00870488       0.00569921 
C      -0.43421599      -1.39747321      -0.02359414        6      -0.01319372      -0.00337488      -0.00316945 
C      -0.96667284       1.55036882      -1.09030378        6      -0.00565987      -0.00181139      -0.01947950 
C       1.89544182      -0.63007104       1.58205504        6       0.01406414      -0.01723647      -0.00325126 
N       1.09500879       1.68947756       1.60702900        7      -0.00911302      -0.00635659      -0.01557487 
O       2.78919353      -1.21702341       0.76765127        8       0.01469350      -0.00629679      -0.00556351 
H      -0.69399327      -0.34342975       1.82212016        1      -0.00287604      -0.01743203      -0.01468465 
H       1.44322146       0.57608305      -0.11837137        1       0.00414143       0.01005898       0.02120615 
H      -2.34674387       0.49571450       0.18395060        1       0.00270701      -0.01179617      -0.00232165 
H      -1.43418563       1.75757272       0.98678296        1      -0.01056045       0.02708081       0.00378765 
H      -0.14848269      -1.21851606      -1.06102852        1       0.02606281       0.01909286       0.01158436 
H      -1.44065219      -1.81408463      -0.02275000        1      -0.01502928       0.00125768       0.00231214 
H       0.23982354      -2.15802462       0.37270289        1      -0.02706744       0.00243530       0.02252837 
H      -1.74372445       2.22942706      -1.43925467        1       0.01887617       0.01492268      -0.01089305 
H      -0.04045232       2.12096068      -1.01234624        1      -0.02610364      -0.00698630       0.01227465 
H      -0.83604327       0.78543521      -1.85635126        1       0.00897099      -0.00740560       0.00748808 
O       1.79155968      -0.91676348       2.74273743        8       0.03535838       0.00882793      -0.01194421 
H       2.03570119       2.06355447       1.60379472        1      -0.00621749       0.03594300       0.01490186 
H       0.84105646       1.53597640       2.57777749        1      -0.01134335      -0.01011745      -0.01646339 
H       3.27911745      -1.86652761       1.29009402        1      -0.01825108      -0.00647748       0.00010686 
