22
Properties=species:S:1:pos:R:3:Z:I:1:forces:R:3 magmom=0 energy=-12017.7959335 dipole="0.1892177 -0.5407861 0.0016425" pbc="F F F"
C      -0.46366150      -0.18839965       0.97352104        6       0.00054358      -0.01998889       0.01869413 
C       1.03351772       0.18886884       0.90332578        6      -0.00335292       0.00503813       0.00884938 
C      -1.39122120       0.80644273       0.25126791        6       0.00006834      -0.01348544       0.00091130 
C      -0.71564358      -1.63991343       0.57074740        6      -0.00968817      -0.00373252      -0.00907260 
C      -1.68962328       0.54808540      -1.22501277        6      -0.00343412       0.00342821      -0.01991680 
C       1.56839327       0.11797891      -0.51757746        6       0.04315242       0.01572991      -0.01868585 
N       1.78936869      -0.59034280       1.87203623        7       0.00719554      -0.00362829       0.00120945 
O       2.11213898      -1.07828743      -0.81808409        8      -0.01668214      -0.02329636      -0.00807702 
H      -0.67746250      -0.10026519       2.04020647        1       0.00215860      -0.01027804       0.02446585 
H       1.11398448       1.24088649       1.17712256        1      -0.01584165       0.00984419       0.02090564 
H      -2.34479809       0.80013690       0.78504317        1       0.02117936       0.02154528       0.01234896 
H      -0.97920616       1.81202960       0.36944617        1      -0.03095166      -0.01292982      -0.02807758 
H      -0.40293673      -1.83555999      -0.45567092        1      -0.01879343      -0.00049833      -0.00772956 
H      -1.77762869      -1.87706032       0.64311038        1      -0.00164437       0.01814176       0.02476091 
H      -0.18191180      -2.33026084       1.22455885        1      -0.00349063       0.01392942      -0.01491261 
H      -2.30932472       1.35654495      -1.61278849        1      -0.00359497      -0.01529878      -0.01589235 
H      -0.79107133       0.50889310      -1.83691217        1       0.01853925      -0.00110609       0.01597900 
H      -2.24520257      -0.38004176      -1.36401564        1       0.03690094      -0.00781029       0.01757827 
O       1.52760068       1.01647004      -1.31124540        8       0.00524500       0.02404393      -0.00764708 
H       2.73355119      -0.23708517       1.96219330        1      -0.00853617       0.00264469      -0.01122528 
H       1.86715466      -1.55445648       1.57463042        1      -0.00903933      -0.01815641      -0.00705614 
H       2.41375886      -1.03685454      -1.73480430        1      -0.00993351       0.01586376       0.00258987 
