22
Properties=species:S:1:pos:R:3:Z:I:1:forces:R:3 magmom=0 energy=-12017.8365737 dipole="-0.1545496 0.3189531 0.5122529" pbc="F F F"
C      -0.21520291       0.12833769       0.87884816        6       0.00572328       0.03507900       0.00885966 
C       1.24224051       0.42548748       0.49715668        6       0.02306511      -0.00856496      -0.01437771 
C      -1.22346891       0.96994072       0.08231340        6      -0.00112373       0.01715435      -0.00370223 
C      -0.48879900      -1.36258659       0.68115563        6      -0.01051268       0.01049509      -0.00461570 
C      -1.55183890       2.32858549       0.69560501        6      -0.00741902       0.00040757       0.00103970 
C       2.17635268      -0.38082380       1.38805061        6       0.00331688       0.01714221      -0.00213556 
N       1.55245120       1.84911534       0.52629692        7      -0.01538564      -0.01301009      -0.00770308 
O       2.07500298      -0.00604529       2.68091131        8       0.00262628       0.01437442      -0.00956024 
H      -0.32527608       0.36924556       1.94033775        1      -0.03942849      -0.00017972       0.03040602 
H       1.41443354       0.06288349      -0.51708222        1       0.01434665       0.00351074      -0.02702847 
H      -0.86258013       1.10321120      -0.94110335        1       0.03970025      -0.02008777       0.00613224 
H      -2.14775513       0.39238365       0.00737610        1      -0.00055644      -0.00210157      -0.00224694 
H      -0.47062380      -1.60478983      -0.38289733        1       0.01884321      -0.01744211      -0.02300284 
H      -1.47458987      -1.62200012       1.06266384        1      -0.01444600      -0.01345237       0.02393764 
H       0.24759419      -1.99533814       1.17732176        1      -0.01692573      -0.00780278       0.02109328 
H      -0.69727899       3.00038969       0.65286349        1      -0.02625338      -0.02099599      -0.00234932 
H      -2.38219189       2.79836687       0.16665769        1       0.02876946       0.00508909       0.02253464 
H      -1.84626771       2.21029012       1.74077791        1      -0.02020435       0.02693915      -0.02402840 
O       2.93184986      -1.23835201       1.02697157        8      -0.00175987       0.01496434      -0.00936278 
H       2.50088255       2.01695782       0.21454552        1      -0.00710468       0.01363148       0.01114800 
H       1.46526747       2.21983894       1.46573029        1       0.00296484      -0.03480400       0.00846171 
H       2.69880667      -0.53737522       3.19026761        1       0.02176388      -0.02034617      -0.00349963 
