22
Properties=species:S:1:pos:R:3:Z:I:1:forces:R:3 magmom=0 energy=-12017.9115792 dipole="-0.2454707 0.1177501 0.6343686" pbc="F F F"
C      -0.26462422      -0.03553843       0.86570491        6      -0.00085541      -0.02338357       0.00461420 
C       1.14466023       0.58485676       0.86075127        6      -0.00947966      -0.00214631       0.00745867 
C      -1.31395664       0.95604236       0.34603671        6       0.01269539      -0.01959464       0.00556772 
C      -0.27762640      -1.35252336       0.09162634        6      -0.00362819      -0.02063526      -0.01167271 
C      -1.02069951       1.51120534      -1.04305247        6      -0.00299240      -0.01211771       0.00712633 
C       2.12079327      -0.39454623       1.49214179        6      -0.01202515       0.01053304       0.00247489 
N       1.13042000       1.88684036       1.50944269        7       0.01144270       0.00045262       0.00480781 
O       1.95327704      -0.47339009       2.82881869        8       0.00166458      -0.01492741       0.01273997 
H      -0.50915187      -0.25361935       1.91043435        1      -0.00074392       0.00366331       0.01121783 
H       1.48059099       0.70851927      -0.17002788        1      -0.01024893       0.00001502       0.00990641 
H      -2.28051496       0.44655411       0.34867730        1      -0.00074089      -0.00318683      -0.01881400 
H      -1.39166088       1.78632549       1.04724953        1      -0.00951195       0.00197296      -0.01751837 
H      -0.01177525      -1.19805879      -0.95414045        1       0.00818531       0.01117571      -0.01463158 
H      -1.26796695      -1.80475053       0.12398131        1      -0.02940622       0.01576441       0.00004633 
H       0.43016060      -2.07521913       0.49700618        1       0.00963557       0.00790049       0.03185052 
H      -1.83056315       2.15855623      -1.37501038        1      -0.01043811       0.00784639      -0.01163152 
H      -0.10745070       2.10459356      -1.03471506        1       0.00616144       0.03535427       0.00112110 
H      -0.90623411       0.71966445      -1.78304333        1      -0.01044490      -0.02063568      -0.01994035 
O       2.94379706      -1.04308913       0.91028487        8      -0.00686305       0.01593117      -0.00989942 
H       2.04950919       2.30889929       1.50639345        1       0.02681897       0.01386678       0.00728167 
H       0.84091876       1.79449797       2.47640440        1       0.01260339       0.00119736      -0.00021803 
H       2.58693239      -1.11935419       3.16395628        1       0.01817143      -0.00904607      -0.00188750 
