22
Properties=species:S:1:pos:R:3:Z:I:1:forces:R:3 magmom=0 energy=-12017.8749772 dipole="0.2894063 0.3461756 0.1842773" pbc="F F F"
C      -0.48223258      -0.15237138       0.70226478        6       0.00708627      -0.00177884      -0.01576030 
C       0.88394631       0.54536195       0.72479878        6       0.00191835      -0.01853128      -0.00773635 
C      -1.61892566       0.83114409       0.39878931        6       0.00189331      -0.00171853       0.00612020 
C      -0.53546121      -1.35668661      -0.23925942        6       0.00609264       0.01139765       0.00834138 
C      -1.58500162       2.11717592       1.22288717        6      -0.00205688      -0.01403324      -0.00397205 
C       1.15571007       1.39476754      -0.50972081        6       0.01895993      -0.01935316       0.00157336 
N       1.96901903      -0.41770075       0.90477084        7       0.02175981       0.00913076       0.01212697 
O       1.96723010       2.43158196      -0.21386690        8      -0.02002674       0.02933022      -0.00217577 
H      -0.60960647      -0.52742719       1.72330309        1      -0.03144480       0.03469560      -0.01035481 
H       0.91575856       1.21844511       1.58184686        1      -0.00139380      -0.00784876      -0.01855822 
H      -1.59967796       1.07427834      -0.66619966        1       0.01573844       0.01042809       0.01267955 
H      -2.56611798       0.31820911       0.57716748        1       0.01497503      -0.02921005       0.00845127 
H      -0.31668532      -1.06881718      -1.26757981        1      -0.02272773       0.03176207       0.02458828 
H      -1.53365756      -1.79720163      -0.21589139        1       0.02895679       0.01808170       0.00043853 
H       0.16776377      -2.13049032       0.06875576        1      -0.01052831       0.00892888      -0.00675815 
H      -0.73261243       2.74991984       0.96816982        1      -0.00550196      -0.01300757      -0.01317613 
H      -2.48464161       2.70446705       1.04831973        1      -0.01263949       0.02615306       0.00511732 
H      -1.52865753       1.90611058       2.29312379        1      -0.00161949      -0.03364993      -0.01790090 
O       0.78709492       1.17663929      -1.63065331        8      -0.01244656      -0.01116363       0.02237981 
H       2.84148410       0.05959787       1.09470679        1      -0.00115833      -0.02124688      -0.02145210 
H       2.09556252      -0.97824669       0.07016809        1      -0.00574765      -0.00425430       0.02279350 
H       2.15689957       2.89561281      -1.03951127        1       0.00991114      -0.00411181      -0.00676534 
