22
Properties=species:S:1:pos:R:3:Z:I:1:forces:R:3 magmom=0 energy=-12017.89673 dipole="-0.2298651 0.3372792 0.5620902" pbc="F F F"
C      -0.38435715       0.16768445       0.90023049        6      -0.00188066      -0.02819842      -0.02905398 
C       1.03500560       0.77301959       0.86829871        6      -0.01085962       0.00327214      -0.02116085 
C      -1.37778931       1.02747908       0.10603657        6      -0.00380636       0.01145946       0.00467967 
C      -0.36644957      -1.27425720       0.39601217        6       0.00136191      -0.04203980      -0.01218029 
C      -0.97131340       1.31315663      -1.33679399        6      -0.01673279       0.01766708      -0.01430274 
C       1.92258049      -0.01220633       1.81897037        6       0.03494885      -0.00579275       0.00740833 
N       1.00506080       2.20149270       1.13523336        7       0.00570425       0.02111740       0.02226761 
O       1.80089954       0.41181161       3.09424938        8       0.00692681      -0.02354102      -0.01571037 
H      -0.71363546       0.16304156       1.94647900        1       0.01848171       0.02539345      -0.03605664 
H       1.45449955       0.60972916      -0.12615136        1       0.01638528       0.01047509       0.00433241 
H      -2.34244153       0.51264938       0.12121242        1       0.01591693       0.03614010       0.01989936 
H      -1.51280357       1.97942123       0.61937564        1      -0.03126513      -0.01269071      -0.00465802 
H      -0.05622868      -1.31499974      -0.64856374        1      -0.00199554       0.00467499      -0.00918686 
H      -1.36080750      -1.71349061       0.46832906        1      -0.01738596       0.01220729       0.00385660 
H       0.32291865      -1.90333594       0.95624599        1      -0.00058529       0.00628223       0.04156564 
H      -1.74479733       1.90038802      -1.83340238        1       0.04025721      -0.02049648       0.00941111 
H      -0.04803925       1.89314294      -1.36572839        1      -0.03456602      -0.02716504      -0.01967455 
H      -0.83286347       0.40064480      -1.91882659        1       0.01587929       0.01457584       0.03391368 
O       2.64731780      -0.91720429       1.51267765        8      -0.01086769       0.03497410       0.00016239 
H       1.94187456       2.58534814       1.16048487        1      -0.02727720      -0.00019371      -0.01324550 
H       0.58780835       2.38326058       2.04093611        1       0.00827258      -0.01901336       0.00742653 
H       2.37968508      -0.14036653       3.63425174        1      -0.00691257      -0.01910782       0.02030647 
