22
Properties=species:S:1:pos:R:3:Z:I:1:forces:R:3 magmom=0 energy=-12017.7959335 dipole="0.1892176 -0.5407861 0.0016425" pbc="F F F"
C      -0.46366150      -0.18839966       0.97352104        6       0.00054353      -0.01998889       0.01869413 
C       1.03351772       0.18886885       0.90332578        6      -0.00335282       0.00503803       0.00884943 
C      -1.39122120       0.80644272       0.25126791        6       0.00006834      -0.01348549       0.00091130 
C      -0.71564356      -1.63991345       0.57074740        6      -0.00968823      -0.00373257      -0.00907270 
C      -1.68962327       0.54808540      -1.22501277        6      -0.00343412       0.00342831      -0.01991685 
C       1.56839326       0.11797893      -0.51757745        6       0.04315252       0.01572996      -0.01868606 
N       1.78936870      -0.59034279       1.87203623        7       0.00719549      -0.00362819       0.00120945 
O       2.11213889      -1.07828746      -0.81808412        8      -0.01668224      -0.02329605      -0.00807692 
H      -0.67746250      -0.10026521       2.04020647        1       0.00215860      -0.01027809       0.02446585 
H       1.11398445       1.24088650       1.17712257        1      -0.01584160       0.00984419       0.02090559 
H      -2.34479810       0.80013689       0.78504316        1       0.02117936       0.02154533       0.01234896 
H      -0.97920616       1.81202959       0.36944618        1      -0.03095171      -0.01292982      -0.02807758 
H      -0.40293671      -1.83556001      -0.45567092        1      -0.01879343      -0.00049828      -0.00772951 
H      -1.77762867      -1.87706035       0.64311038        1      -0.00164432       0.01814181       0.02476091 
H      -0.18191177      -2.33026085       1.22455885        1      -0.00349063       0.01392947      -0.01491255 
H      -2.30932467       1.35654498      -1.61278851        1      -0.00359497      -0.01529889      -0.01589230 
H      -0.79107132       0.50889306      -1.83691216        1       0.01853925      -0.00110609       0.01597905 
H      -2.24520260      -0.38004174      -1.36401565        1       0.03690094      -0.00781034       0.01757827 
O       1.52760073       1.01647008      -1.31124538        8       0.00524505       0.02404362      -0.00764687 
H       2.73355118      -0.23708512       1.96219332        1      -0.00853617       0.00264469      -0.01122528 
H       1.86715470      -1.55445646       1.57463040        1      -0.00903933      -0.01815646      -0.00705614 
H       2.41375877      -1.03685458      -1.73480433        1      -0.00993346       0.01586381       0.00258982 
