22
Properties=species:S:1:pos:R:3:Z:I:1:forces:R:3 magmom=0 energy=-12017.955697 dipole="-0.0603703 0.5502601 -0.2237899" pbc="F F F"
C      -0.38753983      -0.01485319       0.74465843        6      -0.04496762      -0.00733839      -0.00134566 
C       1.13310208       0.25953290       0.71278284        6       0.01485254       0.00614113      -0.01305910 
C      -1.20221904       0.90178442      -0.17051518        6      -0.03890537      -0.00018738      -0.02717785 
C      -0.70541873      -1.47769170       0.45045354        6      -0.01033162      -0.02883410      -0.01221166 
C      -1.05116227       2.39198007       0.11668403        6       0.00647193      -0.01139636      -0.01819575 
C       1.66863298       0.04679076      -0.69441044        6       0.02373797       0.02455049      -0.01619317 
N       1.81413321      -0.57160509       1.68993713        7      -0.00296320      -0.00287938       0.02011066 
O       1.59001371       1.15349553      -1.45539678        8      -0.01833084       0.02494952      -0.01727571 
H      -0.66994663       0.19776672       1.77867441        1      -0.01529153      -0.00861525       0.03391805 
H       1.29354655       1.30388431       0.97820214        1      -0.00238717       0.01103924      -0.01737449 
H      -0.95531574       0.69538378      -1.21595740        1      -0.00461174       0.01141986       0.01487322 
H      -2.25138173       0.62112507      -0.04787263        1       0.01091145       0.01186081      -0.01884958 
H      -0.41792570      -1.74812146      -0.56641914        1       0.02932117      -0.00436162      -0.01928482 
H      -1.77636432      -1.65270062       0.54804077        1      -0.01715389       0.01314754       0.01303781 
H      -0.19994176      -2.15189163       1.13996352        1       0.02001763       0.00679851       0.01310892 
H      -1.73853016       2.97655039      -0.49549028        1       0.01305910      -0.02359584       0.02703675 
H      -1.27426847       2.60200148       1.16362590        1       0.00444549       0.03101764       0.02130576 
H      -0.04398576       2.74714628      -0.09649872        1       0.00199723      -0.00698137      -0.00848120 
O       2.10309213      -0.98928230      -1.11470443        8       0.00365436      -0.02845882       0.03388020 
H       2.73573125      -0.20346781       1.88622951        1       0.01548000      -0.01884161      -0.01609567 
H       1.94567103      -1.50444650       1.31596430        1      -0.00628660      -0.00730528      -0.00118379 
H       1.90054240       0.91987267      -2.34038244        1       0.01728064       0.00787066       0.00945703 
