22
Properties=species:S:1:pos:R:3:Z:I:1:forces:R:3 magmom=0 energy=-12017.7959335 dipole="0.1892166 -0.5407851 0.0016423" pbc="F F F"
C      -0.46366159      -0.18839993       0.97352086        6       0.00054086      -0.01998704       0.01869362 
C       1.03351749       0.18886896       0.90332563        6      -0.00335385       0.00503797       0.00884614 
C      -1.39122159       0.80644251       0.25126818        6       0.00006700      -0.01348564       0.00090930 
C      -0.71564365      -1.63991379       0.57074719        6      -0.00968709      -0.00372985      -0.00907234 
C      -1.68962346       0.54808557      -1.22501263        6      -0.00343427       0.00342677      -0.01991366 
C       1.56839387       0.11797865      -0.51757727        6       0.04315299       0.01572667      -0.01867742 
N       1.78936870      -0.59034255       1.87203605        7       0.00718865      -0.00362310       0.00121109 
O       2.11213705      -1.07828860      -0.81808445        8      -0.01668142      -0.02330268      -0.00807455 
H      -0.67746237      -0.10026549       2.04020628        1       0.00215782      -0.01027896       0.02446791 
H       1.11398403       1.24088685       1.17712190        1      -0.01584154       0.00984008       0.02090693 
H      -2.34479866       0.80013618       0.78504312        1       0.02117972       0.02154430       0.01235004 
H      -0.97920727       1.81202963       0.36944696        1      -0.03094955      -0.01293090      -0.02807753 
H      -0.40293719      -1.83556010      -0.45567130        1      -0.01879358      -0.00049890      -0.00772858 
H      -1.77762872      -1.87706097       0.64311059        1      -0.00164252       0.01814237       0.02476163 
H      -0.18191119      -2.33026087       1.22455849        1      -0.00349187       0.01392921      -0.01491399 
H      -2.30932355       1.35654589      -1.61278870        1      -0.00359636      -0.01529693      -0.01589322 
H      -0.79107147       0.50889174      -1.83691176        1       0.01854275      -0.00110573       0.01597756 
H      -2.24520406      -0.38004081      -1.36401544        1       0.03690145      -0.00781111       0.01757766 
O       1.52760454       1.01647045      -1.31124434        8       0.00524104       0.02405648      -0.00765849 
H       2.73355013      -0.23708292       1.96219457        1      -0.00852845       0.00264551      -0.01122379 
H       1.86715699      -1.55445544       1.57462869        1      -0.00903892      -0.01816233      -0.00705619 
H       2.41375820      -1.03685551      -1.73480419        1      -0.00993294       0.01586381       0.00258797 
