22
Properties=species:S:1:pos:R:3:Z:I:1:forces:R:3 magmom=0 energy=-12017.8377112 dipole="0.0326692 0.5742845 -0.2403711" pbc="F F F"
C      -0.26427517      -0.30504756       0.75442524        6       0.00880382       0.00835470      -0.01194031 
C       1.15312267       0.22495750       1.08192858        6       0.01459317       0.00735078       0.00986548 
C      -1.36010353       0.77257659       0.75854089        6      -0.01200808      -0.01235965      -0.00541109 
C      -0.24003113      -1.10278059      -0.54473264        6       0.01559256       0.00314029      -0.00608992 
C      -1.21204492       1.90924520      -0.25633885        6      -0.00526865      -0.00412621       0.00102608 
C       1.06850832       0.93922970       2.42289418        6       0.02527652       0.01266052      -0.01478348 
N       1.75232164       0.96854569      -0.01202786        7       0.01088708       0.00040299       0.02655430 
O       1.14028806       2.28039191       2.32450976        8      -0.00830302       0.01684392      -0.03944952 
H      -0.50521563      -0.98764210       1.57395091        1      -0.00393806       0.01397189      -0.02247093 
H       1.77755072      -0.65093789       1.26654341        1      -0.01289187      -0.01412976      -0.00261399 
H      -2.30393473       0.25476384       0.57656902        1      -0.01503134      -0.00348904      -0.01042531 
H      -1.44512779       1.19849354       1.76215258        1      -0.00416298      -0.00639912      -0.00583856 
H       0.07510973      -0.48405797      -1.38216530        1      -0.01456155      -0.00957690      -0.00979056 
H      -1.22759841      -1.51207186      -0.76072968        1       0.00277263       0.01015246       0.02404475 
H       0.46340423      -1.93308660      -0.47435958        1       0.00988975       0.00037554       0.00543973 
H      -2.16893108       2.40806841      -0.41107586        1       0.03353603      -0.00311721       0.01687734 
H      -0.51152056       2.66801191       0.09517532        1      -0.02161645      -0.00942916      -0.00597103 
H      -0.86438565       1.54779225      -1.22467828        1      -0.03651661       0.01270845       0.01553831 
O       0.91135662       0.38486432       3.47419603        8      -0.00831202      -0.03392386       0.01272048 
H       2.74062317       1.11153212       0.14626093        1       0.01237092      -0.02154492       0.02505021 
H       1.33476502       1.88280423      -0.11128850        1      -0.00770087       0.00994400      -0.01112902 
H       1.02519500       2.63298797       3.21619994        1       0.01658907       0.02219022       0.00879698 
