22
Properties=species:S:1:pos:R:3:Z:I:1:forces:R:3 magmom=0 energy=-12017.888991 dipole="-0.0333316 -0.3098247 0.4890533" pbc="F F F"
C      -0.34807317      -0.09929484       0.80989577        6       0.01170037      -0.00546323       0.01528547 
C       1.16258222       0.23610257       0.85451453        6       0.03757272      -0.00866061      -0.02067316 
C      -1.26567809       1.09615782       0.52050822        6      -0.02592757       0.03367461      -0.00382858 
C      -0.60044176      -1.25939120      -0.14572297        6       0.00440312       0.00253603       0.00341263 
C      -1.19419427       1.70038074      -0.88113327        6       0.01683594       0.04188276      -0.00250888 
C       1.40024636       1.35728848       1.85120184        6       0.00470687       0.00177566       0.03509942 
N       1.74279707       0.52929424      -0.44489752        7       0.01775820      -0.00168418      -0.00115818 
O       1.09388011       0.99627524       3.11104679        8      -0.00297898      -0.00240048      -0.04315402 
H      -0.59154360      -0.42871013       1.82278027        1      -0.02365636      -0.01773521       0.00284395 
H       1.65727854      -0.65121566       1.25636272        1      -0.00764471      -0.01149515       0.01196468 
H      -2.28775444       0.75241679       0.70074438        1       0.00280621       0.02100468      -0.01927397 
H      -1.08516496       1.88556075       1.25629480        1       0.01988131      -0.02192544       0.01247643 
H      -0.26757320      -1.01133154      -1.15140517        1       0.01713049      -0.02691313       0.00251840 
H      -1.66489184      -1.49556571      -0.17805488        1       0.00352658      -0.00876973      -0.00080506 
H      -0.06405447      -2.15417505       0.17470830        1       0.00202618       0.02119772      -0.01464464 
H      -1.32843586       0.95112696      -1.66033062        1      -0.01539417      -0.02868688       0.03199286 
H      -1.97864709       2.44833754      -0.99985979        1       0.02102144      -0.01255624      -0.01109693 
H      -0.24293138       2.19522329      -1.06701916        1      -0.01875687       0.01805347       0.02504383 
O       1.79568697       2.45400561       1.57113796        8      -0.01153757       0.03569936       0.01781399 
H       2.72731082       0.29541245      -0.44466972        1      -0.02254709      -0.00390808      -0.00964909 
H       1.69585535       1.52534815      -0.62749125        1      -0.02384827      -0.02743861       0.00038104 
H       1.25121792       1.75811881       3.68417009        1      -0.00707784       0.00181278      -0.03204032 
