22
Properties=species:S:1:pos:R:3:Z:I:1:forces:R:3 magmom=0 energy=-12017.7959335 dipole="0.1892176 -0.5407861 0.0016424" pbc="F F F"
C      -0.46366148      -0.18839969       0.97352105        6       0.00054317      -0.01998925       0.01869434 
C       1.03351772       0.18886884       0.90332581        6      -0.00335313       0.00503823       0.00884969 
C      -1.39122115       0.80644267       0.25126789        6       0.00006798      -0.01348503       0.00091125 
C      -0.71564360      -1.63991347       0.57074744        6      -0.00968812      -0.00373273      -0.00907250 
C      -1.68962311       0.54808538      -1.22501281        6      -0.00343443       0.00342836      -0.01991808 
C       1.56839322       0.11797899      -0.51757742        6       0.04315268       0.01573006      -0.01868555 
N       1.78936871      -0.59034277       1.87203625        7       0.00719600      -0.00362952       0.00120924 
O       2.11213881      -1.07828736      -0.81808418        8      -0.01668209      -0.02329708      -0.00807717 
H      -0.67746254      -0.10026518       2.04020646        1       0.00215875      -0.01027819       0.02446616 
H       1.11398445       1.24088649       1.17712261        1      -0.01584175       0.00984434       0.02090574 
H      -2.34479813       0.80013677       0.78504301        1       0.02117967       0.02154533       0.01234911 
H      -0.97920616       1.81202955       0.36944631        1      -0.03095187      -0.01292987      -0.02807799 
H      -0.40293681      -1.83556004      -0.45567089        1      -0.01879333      -0.00049838      -0.00772956 
H      -1.77762874      -1.87706032       0.64311046        1      -0.00164407       0.01814186       0.02476096 
H      -0.18191182      -2.33026091       1.22455888        1      -0.00349079       0.01392972      -0.01491276 
H      -2.30932440       1.35654506      -1.61278862        1      -0.00359415      -0.01529971      -0.01589199 
H      -0.79107111       0.50889283      -1.83691220        1       0.01853791      -0.00110593       0.01597997 
H      -2.24520264      -0.38004168      -1.36401565        1       0.03690156      -0.00780962       0.01757817 
O       1.52760067       1.01647020      -1.31124526        8       0.00524505       0.02404434      -0.00764770 
H       2.73355118      -0.23708507       1.96219336        1      -0.00853611       0.00264495      -0.01122518 
H       1.86715482      -1.55445644       1.57463040        1      -0.00903974      -0.01815574      -0.00705593 
H       2.41375853      -1.03685448      -1.73480444        1      -0.00993325       0.01586381       0.00258982 
