22
Properties=species:S:1:pos:R:3:Z:I:1:forces:R:3 magmom=0 energy=-12017.7959335 dipole="0.1892168 -0.5407847 0.0016424" pbc="F F F"
C      -0.46366162      -0.18839987       0.97352079        6       0.00054199      -0.01998647       0.01869305 
C       1.03351749       0.18886902       0.90332550        6      -0.00335349       0.00503767       0.00884532 
C      -1.39122179       0.80644261       0.25126828        6       0.00006783      -0.01348693       0.00090960 
C      -0.71564342      -1.63991375       0.57074703        6      -0.00968730      -0.00372964      -0.00907229 
C      -1.68962385       0.54808570      -1.22501252        6      -0.00343309       0.00342672      -0.01991104 
C       1.56839409       0.11797845      -0.51757737        6       0.04315103       0.01572487      -0.01867680 
N       1.78936865      -0.59034254       1.87203599        7       0.00718742      -0.00362119       0.00121053 
O       2.11213704      -1.07828903      -0.81808431        8      -0.01668091      -0.02330032      -0.00807388 
H      -0.67746218      -0.10026558       2.04020629        1       0.00215726      -0.01027881       0.02446708 
H       1.11398402       1.24088692       1.17712165        1      -0.01584103       0.00984044       0.02090713 
H      -2.34479871       0.80013632       0.78504345        1       0.02117890       0.02154363       0.01234978 
H      -0.97920762       1.81202977       0.36944693        1      -0.03094822      -0.01293049      -0.02807701 
H      -0.40293675      -1.83555998      -0.45567142        1      -0.01879394      -0.00049895      -0.00772838 
H      -1.77762841      -1.87706118       0.64311031        1      -0.00164350       0.01814248       0.02476153 
H      -0.18191094      -2.33026072       1.22455842        1      -0.00349156       0.01392911      -0.01491415 
H      -2.30932411       1.35654589      -1.61278842        1      -0.00359744      -0.01529575      -0.01589405 
H      -0.79107191       0.50889209      -1.83691167        1       0.01854419      -0.00110563       0.01597648 
H      -2.24520418      -0.38004077      -1.36401532        1       0.03690027      -0.00781261       0.01757740 
O       1.52760501       1.01647008      -1.31124464        8       0.00524130       0.02405689      -0.00765813 
H       2.73355002      -0.23708278       1.96219471        1      -0.00852850       0.00264495      -0.01122400 
H       1.86715701      -1.55445530       1.57462830        1      -0.00903789      -0.01816320      -0.00705557 
H       2.41375881      -1.03685585      -1.73480383        1      -0.00993330       0.01586319       0.00258735 
