22
Properties=species:S:1:pos:R:3:Z:I:1:forces:R:3 magmom=0 energy=-12017.9067818 dipole="-0.1419088 -0.2227461 0.4643935" pbc="F F F"
C      -0.43405542      -0.13801017       0.76019658        6      -0.01659940       0.02221073      -0.02150641 
C       1.01385242       0.36825577       1.00029730        6      -0.01886799      -0.00210363       0.00316241 
C      -1.42471785       0.96431774       0.35369091        6       0.01032910       0.01301076      -0.01081046 
C      -0.41448343      -1.30162443      -0.22515561        6       0.00277931       0.01398840       0.01645007 
C      -1.03780840       1.79238192      -0.87052508        6       0.01217366      -0.02003820      -0.00021690 
C       0.95452977       1.61702183       1.86370899        6       0.01325023      -0.04429708       0.00289455 
N       1.78347853       0.54674551      -0.21696389        7      -0.03255829       0.02280543       0.02666841 
O       0.41877446       1.36341956       3.07233210        8       0.02482724      -0.01583316      -0.00496583 
H      -0.77403063      -0.51198169       1.72930925        1       0.00773203      -0.01686901      -0.03086836 
H       1.50440790      -0.40593093       1.59450919        1       0.01936293       0.01505144       0.00866102 
H      -2.39129701       0.48639711       0.17543114        1       0.01821421      -0.00668549       0.00419774 
H      -1.57603888       1.63963575       1.20028182        1      -0.00756408      -0.01518859       0.00394783 
H      -0.15765656      -0.96676052      -1.22813959        1      -0.01604368      -0.00837218       0.01330582 
H      -1.38663359      -1.79503590      -0.25143868        1       0.00354231       0.02467123      -0.00713615 
H       0.33719965      -2.03549475       0.06688153        1      -0.01535355      -0.03489059      -0.00751369 
H      -1.87195954       2.41907893      -1.18152110        1      -0.02562907      -0.00535700      -0.02375324 
H      -0.20641476       2.46200199      -0.64937522        1       0.00655827      -0.01776812       0.00368429 
H      -0.76065758       1.15730237      -1.71140760        1       0.00951499       0.02541237      -0.02551578 
O       1.30180205       2.71399419       1.52840197        8       0.01047539       0.03004067      -0.00613630 
H       2.77299338       0.49807115      -0.01792130        1       0.02207452       0.00195275       0.02150759 
H       1.61921486       1.46015513      -0.62136241        1      -0.04271945      -0.00919792       0.01695674 
H       0.37294292       2.19911511       3.55311163        1       0.01450133       0.02745722       0.01698661 
