22
Properties=species:S:1:pos:R:3:Z:I:1:forces:R:3 magmom=0 energy=-12017.7756094 dipole="0.2898338 0.2862303 0.0790821" pbc="F F F"
C      -0.41698806      -0.15087541       0.80258407        6      -0.04152903      -0.01256051       0.00874386 
C       1.02712688       0.35505375       0.88932313        6      -0.03909085      -0.00965629       0.02487645 
C      -1.37144278       0.90332161       0.22389264        6       0.00694923      -0.01145139      -0.00216142 
C      -0.58543812      -1.50935092       0.11683140        6       0.00732960       0.00436656      -0.00358926 
C      -0.99935415       1.43592801      -1.15686636        6       0.00777065      -0.00434465       0.02104299 
C       1.80945012       0.36480482      -0.41547779        6      -0.00740889      -0.01629442       0.00783076 
N       1.77783488      -0.43360014       1.87090772        7       0.02674122      -0.01320493       0.00041256 
O       2.81598966       1.26366916      -0.35436712        8       0.00386941       0.00953206      -0.04585007 
H      -0.69220999      -0.28414214       1.85094066        1      -0.01429801      -0.00185855       0.01920902 
H       1.00349322       1.38268436       1.25754968        1       0.02258637       0.01063208       0.00125722 
H      -2.37057445       0.46177962       0.18092573        1       0.01670626       0.00960724       0.01125932 
H      -1.43784005       1.74071472       0.92459154        1       0.02785760      -0.01634810      -0.02446924 
H      -0.53357419      -1.42302694      -0.96561025        1      -0.00056184      -0.02281294       0.00622048 
H      -1.55263945      -1.93362477       0.39072831        1       0.02397281       0.02183510      -0.02726645 
H       0.18274076      -2.22262082       0.41961047        1      -0.02436023       0.00570363       0.00898755 
H      -1.75263232       2.13971677      -1.50677342        1      -0.01866241       0.00685379      -0.02238089 
H      -0.04664249       1.96785090      -1.13775508        1       0.00032746       0.02972000      -0.00373242 
H      -0.91257249       0.63584883      -1.89039315        1       0.01094786      -0.00291429      -0.00813641 
O       1.66515177      -0.35840618      -1.36087642        8       0.00312446      -0.00508965       0.02251027 
H       2.70687389      -0.05341281       2.00587028        1      -0.01003589      -0.00558634      -0.00771933 
H       1.88155835      -1.38941914       1.55143799        1       0.00668626      -0.01168911       0.00814623 
H       3.33986423       1.15827255      -1.15928531        1      -0.00892193       0.03556067       0.00480879 
