22
Properties=species:S:1:pos:R:3:Z:I:1:forces:R:3 magmom=0 energy=-12017.8094821 dipole="0.0534902 -0.3924311 -0.6616865" pbc="F F F"
C      -0.53507525       0.05721978       0.90179918        6      -0.00690974      -0.02529189       0.01324427 
C       0.89063974       0.61758985       1.18037974        6      -0.01693863      -0.00451357       0.00987407 
C      -1.37587950       1.07466857       0.11959435        6       0.01808586      -0.00511552       0.00775861 
C      -0.49600508      -1.28376778       0.16958041        6       0.02138597      -0.02130149      -0.01365441 
C      -0.85493582       1.36890073      -1.28586732        6       0.00765166       0.00761026      -0.00805290 
C       1.55003561      -0.07326186       2.36029001        6      -0.00306054       0.00072757      -0.00088333 
N       0.86281722       2.03768901       1.48134366        7       0.03138536       0.00143576       0.03110829 
O       1.60551019      -1.40972268       2.23273007        8      -0.00613871       0.00570785       0.00305252 
H      -1.01957162      -0.07959683       1.87230272        1      -0.03208521       0.01210589       0.01619805 
H       1.51749480       0.37018960       0.31026347        1       0.00244065       0.00742601       0.01806858 
H      -2.39579306       0.68865270       0.05089253        1       0.02936272      -0.01333477      -0.00382400 
H      -1.42963772       1.99551693       0.69717115        1      -0.00469756       0.01583347      -0.01505165 
H       0.12180553      -1.21381209      -0.72712788        1      -0.00762255       0.00084492      -0.03727503 
H      -1.50056802      -1.57319402      -0.14220669        1      -0.00059752       0.01593508       0.01228201 
H      -0.08520066      -2.07755537       0.78468511        1      -0.01715260      -0.01193604       0.01266592 
H      -1.39253438       2.20929433      -1.72236904        1      -0.00224617      -0.00290077      -0.03325856 
H       0.20678883       1.62598644      -1.27995510        1       0.00173524       0.02518118      -0.01077935 
H      -0.97257447       0.51685411      -1.95536436        1      -0.01297147      -0.01245710       0.03554859 
O       2.00466171       0.48948288       3.31668436        8       0.00642457       0.00881636      -0.01499174 
H       0.88673991       2.59774203       0.64148423        1       0.00377057       0.00750176       0.02225197 
H       1.63409401       2.29483037       2.08372070        1      -0.02443253      -0.01058945      -0.03157546 
H       2.03544592      -1.74919401       3.02847928        1       0.01261059      -0.00168541      -0.01270655 
