22
Properties=species:S:1:pos:R:3:Z:I:1:forces:R:3 magmom=0 energy=-12017.7827115 dipole="0.4733125 0.0008233 -0.1263757" pbc="F F F"
C      -0.97757629       1.19215996      -0.43755674        6      -0.01506703       0.00109550       0.01689302 
C       1.34171769       0.63292437      -1.60880038        6      -0.00347068      -0.00547228      -0.00631262 
C       0.22184430       0.25509732      -0.63807264        6      -0.01923597       0.00702091       0.00858121 
C      -1.96531392       0.51324411       0.51123281        6      -0.00109210      -0.00727648       0.01729406 
C      -1.68961097       1.57238257      -1.73404777        6       0.00824723      -0.00978552       0.01624922 
C       1.89792732       2.03293803      -1.40288931        6       0.01505335       0.00246384      -0.02019036 
N       0.95715563       0.45772311      -3.01101382        7      -0.01566450      -0.00550201      -0.00997645 
O       3.22267520       2.06770494      -1.65390232        8       0.01376610       0.02444060      -0.00486350 
H      -0.62393908       2.11173871       0.02951804        1      -0.00416719      -0.02383932       0.01189094 
H       2.16593418      -0.05850571      -1.43497934        1       0.00810407      -0.00271550      -0.00186477 
H      -0.14451332      -0.71697182      -0.98326732        1      -0.00392931       0.01440841       0.01385172 
H       0.68134696       0.08653064       0.34012471        1      -0.02327193       0.01122060      -0.00068576 
H      -2.35373394      -0.40715393       0.06854807        1      -0.00772411       0.00378302      -0.01293162 
H      -2.81313092       1.16521651       0.72345089        1       0.00704631       0.00494459      -0.01394885 
H      -1.49894328       0.25426579       1.46182969        1       0.03830054      -0.01630465       0.01268402 
H      -2.63907282       2.05758438      -1.50827882        1      -0.01985216       0.01275653      -0.01748103 
H      -1.10485311       2.27816210      -2.32383604        1       0.02494464      -0.00920362      -0.00199374 
H      -1.90021368       0.68562159      -2.33610735        1      -0.00573593       0.00392253      -0.02676359 
O       1.27580295       3.02353775      -1.13538198        8      -0.00237837      -0.01637423      -0.01810010 
H       1.76252080       0.54546747      -3.61828222        1       0.00351377      -0.00402522       0.01608534 
H       0.27452342       1.14528798      -3.29887115        1      -0.01301163       0.00224596       0.00500769 
H       3.50265722       2.99032515      -1.59653547        1       0.01562496       0.01219639       0.01657523 
