22
Properties=species:S:1:pos:R:3:Z:I:1:forces:R:3 magmom=0 energy=-12017.9743504 dipole="-0.4515191 0.3111201 -0.1924864" pbc="F F F"
C      -0.48227397      -0.17035409      -2.37148150        6      -0.00886681      -0.00139076      -0.00117685 
C       0.59041091       1.19493752      -0.43925702        6       0.00948310      -0.01104448       0.03478199 
C       0.40641125      -0.16174139      -1.12671830        6      -0.00302732       0.00075950      -0.00694784 
C      -1.88690524       0.34999503      -2.07313845        6      -0.00648828      -0.00863695      -0.00338949 
C      -0.54586273      -1.58733917      -2.93913203        6      -0.02498490      -0.00516879       0.02007343 
C       1.11259443       2.18990848      -1.46362558        6      -0.02998138      -0.03118661       0.01874602 
N       1.50172839       1.03724900       0.68225475        7       0.00527518      -0.00295291       0.00443736 
O       0.16532317       3.03516263      -1.90712870        8      -0.01259491      -0.03440445      -0.00207272 
H      -0.02936319       0.47662883      -3.13090580        1       0.01020322       0.00649420       0.01594645 
H      -0.36514621       1.55584492      -0.06045022        1      -0.00474266       0.00372702      -0.02314291 
H       1.40218496      -0.52843519      -1.39276981        1       0.00279787      -0.01306696       0.00697700 
H       0.00023149      -0.84607892      -0.37734872        1       0.00530701       0.01381536      -0.00780458 
H      -2.36729408      -0.27366267      -1.31543699        1       0.00686917       0.00508307       0.02334768 
H      -2.50781839       0.31980541      -2.96815801        1      -0.01083391      -0.01961778      -0.02127526 
H      -1.87651578       1.37920607      -1.71599482        1       0.00629709      -0.01116682      -0.01265394 
H      -1.15603421      -1.62524271      -3.84247830        1       0.04213139       0.01613856      -0.00124606 
H       0.44767782      -1.97158793      -3.17484679        1      -0.02107667       0.03527919      -0.02238367 
H      -0.99718155      -2.26311154      -2.20958483        1      -0.00815189      -0.00281885       0.01946793 
O       2.24528045       2.22053711      -1.85572552        8       0.02704857       0.03374933      -0.02431570 
H       1.58300251       1.90133820       1.20337493        1       0.01569309      -0.00578349       0.01556777 
H       2.42860884       0.81205356       0.33602227        1      -0.01982197       0.00255341      -0.00131018 
H       0.57100268       3.60656651      -2.57184866        1       0.01946495       0.02963917      -0.03162637 
