22
Properties=species:S:1:pos:R:3:Z:I:1:forces:R:3 magmom=0 energy=-12017.9743504 dipole="-0.3277604 -0.4632354 -0.1253075" pbc="F F F"
C       0.24190129      -0.99981627      -2.17619662        6       0.00060328      -0.00894975       0.00120400 
C      -1.25112804       0.61364013      -0.79207677        6       0.00720310       0.01713856       0.03280137 
C       0.15892260       0.17143227      -1.19611356        6      -0.00013611      -0.00462192      -0.00606338 
C      -0.45702439      -2.24594045      -1.63634653        6       0.00828960      -0.00769521      -0.00035342 
C       1.70784098      -1.29975795      -2.48469804        6      -0.00019746      -0.01943523       0.02600512 
C      -2.03996625       0.92804381      -2.05336911        6       0.02510785      -0.02635803       0.02997351 
N      -1.15133465       1.76452563       0.09033901        7       0.00286513       0.00601520       0.00345227 
O      -2.91201734      -0.04072575      -2.38425374        8       0.03287660      -0.01502116       0.00638204 
H      -0.24673511      -0.70935049      -3.11284191        1      -0.00747595       0.01429796       0.01184271 
H      -1.75700177      -0.18946223      -0.25732786        1      -0.00106305      -0.01013848      -0.02163054 
H       0.65956078       1.04128763      -1.63145899        1       0.01223588       0.00357358       0.00805228 
H       0.69058058      -0.07896647      -0.27443330        1      -0.01201291       0.00409901      -0.01089243 
H       0.00599748      -2.56179113      -0.69843249        1      -0.00742324       0.01283731       0.01995516 
H      -0.37183165      -3.07227205      -2.34162834        1       0.02106032      -0.01713759      -0.01476297 
H      -1.51811885      -2.07649819      -1.45661703        1       0.01335549       0.00214703      -0.01189521 
H       1.80287005      -2.11833173      -3.19932159        1      -0.01135404       0.04146120      -0.01374826 
H       2.22147810      -0.42563060      -2.88769871        1      -0.03395630      -0.02358026      -0.02192339 
H       2.22902158      -1.59813860      -1.57259274        1      -0.00068242      -0.00317367       0.02104068 
O      -1.89973985       1.92536852      -2.70401323        8      -0.02718494       0.02230864      -0.03501570 
H      -2.06432031       2.03240017       0.43605903        1       0.00524587       0.01867161       0.01208228 
H      -0.78655528       2.55731264      -0.42746648        1      -0.00440764      -0.01930513       0.00307597 
H      -3.34378515       0.22279401      -3.20709287        1      -0.02294895       0.01286632      -0.03958208 
