22
Properties=species:S:1:pos:R:3:Z:I:1:forces:R:3 magmom=0 energy=-12017.608028 dipole="0.0809925 1.6483909 0.221139" pbc="F F F"
C      -0.68404105       0.88117880      -1.89677171        6      -0.00596460      -0.02917827       0.00671336 
C       0.14714690      -1.57783116      -1.32869559        6      -0.01902611      -0.00983807      -0.00039106 
C      -0.18437421      -0.15400694      -0.87013535        6       0.02133142      -0.01652515       0.02545552 
C      -0.02991001       0.72310632      -3.26608008        6      -0.00454273      -0.00492469      -0.00091228 
C      -0.44366777       2.28472232      -1.34108104        6      -0.01012197      -0.01398408       0.00700919 
C      -1.01743097      -2.44988405      -1.83104525        6      -0.00683194      -0.00986856      -0.00786737 
N       0.86886970      -2.25528561      -0.25835849        7      -0.01527292      -0.00329610      -0.01568131 
O      -2.15450340      -1.84473763      -2.21515443        8       0.01317115      -0.01326211      -0.01619440 
H      -1.77040645       0.79724826      -2.02711221        1      -0.02197949       0.01991448      -0.00691035 
H       0.83028131      -1.51711786      -2.18179026        1      -0.02383392       0.00070772       0.00336928 
H      -0.88502707      -0.20052028      -0.03006267        1      -0.00989335       0.01166422       0.01615614 
H       0.75083246       0.22581041      -0.45649312        1       0.04685666       0.00078629       0.01214949 
H       1.05750721       0.75991665      -3.17318196        1       0.00309957       0.01681697      -0.00496151 
H      -0.34059360       1.52835948      -3.93110826        1       0.01618360       0.00530413      -0.00387213 
H      -0.29441228      -0.22158430      -3.74305044        1       0.00109781       0.00196509      -0.00807954 
H      -0.92488248       3.04156358      -1.95874662        1       0.00306347       0.00971831      -0.03464649 
H      -0.82944134       2.38068398      -0.32621442        1      -0.01902200      -0.00878865       0.01630244 
H       0.62620529       2.49870625      -1.31430165        1       0.00842864      -0.01199291       0.00480359 
O      -0.91935761      -3.63851684      -1.90561544        8      -0.01121068       0.00567540       0.02404321 
H       1.01571898      -3.22358494      -0.52184458        1       0.02210753       0.01003219      -0.02275812 
H       0.29200018      -2.28000552       0.57594762        1       0.01414189       0.01697669       0.01444466 
H      -2.09903345      -0.89525943      -2.07911798        1      -0.00178213       0.02209699      -0.00817241 
