22
Properties=species:S:1:pos:R:3:Z:I:1:forces:R:3 magmom=0 energy=-12017.9136337 dipole="-0.2838088 0.2595175 0.3665385" pbc="F F F"
C       0.36077423       1.27421763      -1.23786925        6      -0.01701489      -0.01118538      -0.00373710 
C      -1.29729029      -0.71577721      -1.51822960        6      -0.00908469      -0.00194381       0.00099486 
C      -0.01790628      -0.16220821      -0.87170451        6       0.00891633      -0.02635103      -0.01172228 
C       0.67652755       1.47738379      -2.71743112        6      -0.01220251      -0.01160555       0.00938242 
C       1.55648491       1.68709687      -0.38233606        6      -0.02113956       0.00186163      -0.00320781 
C      -1.74624074      -1.88484972      -0.65763343        6       0.00042099      -0.02784536      -0.00053798 
N      -1.08558788      -1.09780309      -2.90129792        7       0.00471355       0.01092781       0.00055690 
O      -2.43228673      -1.49147608       0.43005604        8       0.00723514      -0.00787765       0.00561015 
H      -0.49101896       1.90968140      -0.97343797        1       0.01610220       0.03377484       0.00447958 
H      -2.07171679       0.05236079      -1.47270990        1      -0.02744303       0.00944490      -0.00157017 
H      -0.13367459      -0.20750613       0.21453018        1      -0.01559570      -0.01358550      -0.02115715 
H       0.80440166      -0.83938983      -1.12484894        1       0.03620294      -0.01089382      -0.02376733 
H       1.47041831       0.79447907      -3.03055844        1       0.00811286       0.02665195       0.00379541 
H       1.01912218       2.50034358      -2.88542354        1      -0.00534095      -0.03900976      -0.01986378 
H      -0.18341956       1.28125387      -3.35250410        1       0.00208804       0.00975137       0.01773665 
H       1.84890822       2.71707741      -0.58300608        1       0.01489204       0.01161794      -0.01660053 
H       1.33386346       1.59757891       0.68100269        1       0.01377474       0.00205297       0.02183294 
H       2.41085865       1.04281373      -0.60351617        1       0.01893155       0.03463806       0.01018594 
O      -1.49061551      -3.03492833      -0.88034856        8      -0.03207493      -0.01470147      -0.01855637 
H      -1.95540386      -1.40694248      -3.31884411        1       0.01966442       0.00898673       0.00022338 
H      -0.45600664      -1.89220959      -2.93954431        1       0.00553687       0.00404270       0.02642683 
H      -2.62653087      -2.28301992       0.94883753        1      -0.01669541       0.01124847       0.01949555 
