22
Properties=species:S:1:pos:R:3:Z:I:1:forces:R:3 magmom=0 energy=-12017.9743504 dipole="-0.4276806 0.2897327 0.2661949" pbc="F F F"
C      -0.72837862      -0.69335226       0.55274601        6      -0.00064324       0.00581794       0.00690213 
C      -0.86452373      -0.07002610      -1.96540726        6       0.02719893       0.01180795      -0.02328458 
C      -0.02648966      -0.61356903      -0.80381506        6      -0.00434486      -0.00177056       0.00600851 
C      -1.25128180       0.66842466       1.00540086        6       0.00501149       0.00122580       0.01007322 
C       0.23573728      -1.26791842       1.58931315        6       0.01015293       0.03042531       0.00502013 
C      -2.13219114      -0.90198819      -2.07868616        6       0.03152183       0.02836380       0.02061644 
N      -0.07135508      -0.11535190      -3.18277436        7       0.00541716      -0.00191779      -0.00482318 
O      -3.21599513      -0.28076461      -1.58076803        8       0.02722824       0.00169307       0.02455620 
H      -1.57932355      -1.37832387       0.46820732        1       0.00324350       0.00317151      -0.01949339 
H      -1.14459071       0.96510945      -1.77332705        1      -0.01470476      -0.00975960       0.01613372 
H       0.31694829      -1.61184469      -1.09070978        1       0.01506677      -0.00044578      -0.00038556 
H       0.85929186       0.02210465      -0.72530147        1      -0.01490253      -0.00613866      -0.00447485 
H      -0.42555699       1.37798786       1.09777074        1       0.00742643       0.00998077      -0.02152605 
H      -1.73234087       0.59249919       1.98024528        1       0.00564378      -0.00850824       0.02917035 
H      -1.98246543       1.07954179       0.31021160        1       0.00479840      -0.01474286       0.00917354 
H      -0.24087020      -1.35867727       2.56624118        1      -0.00845579      -0.02994250      -0.03269312 
H       0.60826730      -2.24938431       1.29219827        1      -0.04430937       0.00939383       0.01174814 
H       1.09817353      -0.60803565       1.70487497        1       0.01030401       0.01759247      -0.00613712 
O      -2.17404255      -2.00471184      -2.54762848        8      -0.03677583      -0.02902323      -0.01636101 
H      -0.57172306       0.30925060      -3.95359636        1       0.01459929      -0.00366804      -0.01719107 
H       0.10112090      -1.08208442      -3.43846514        1      -0.00576431       0.01491548       0.01206989 
H      -3.96391384      -0.88641821      -1.66281502        1      -0.03771202      -0.02847060      -0.00510230 
