22
Properties=species:S:1:pos:R:3:Z:I:1:forces:R:3 magmom=0 energy=-12017.9743504 dipole="-0.0887465 -0.1323855 0.5588502" pbc="F F F"
C       0.84842130       0.63354372       0.42673793        6      -0.00512241       0.00319809       0.00673902 
C       0.37725240      -1.52942294      -0.93257872        6      -0.02172963      -0.00495760      -0.03040623 
C       0.50355980      -0.00268091      -0.92068949        6       0.00333457       0.00249160       0.00639747 
C      -0.17742885       0.28259284       1.50248212        6      -0.00335951       0.01022518       0.00348040 
C       0.95218277       2.14866942       0.26016983        6      -0.03196072       0.00116291       0.00559524 
C       1.66408176      -2.12597173      -0.38469782        6      -0.03925108       0.02614092       0.00036016 
N       0.10583469      -1.97109322      -2.29067053        7      -0.00043796       0.00008330      -0.00749389 
O       1.54454182      -2.56317899       0.88141120        8      -0.01329250       0.03414482      -0.00228314 
H       1.82729323       0.26249687       0.75011729        1      -0.00393914      -0.01374430      -0.01400598 
H      -0.44923521      -1.84212197      -0.29541671        1       0.01475710       0.00631818       0.01771722 
H       1.27154541       0.26511830      -1.65232729        1      -0.00587533       0.00870678      -0.01081951 
H      -0.44497356       0.39828055      -1.28725234        1       0.01186230      -0.01042176       0.00550458 
H      -1.16823424       0.63775205       1.20922441        1      -0.01184266      -0.01474708      -0.01613568 
H       0.07754691       0.75879516       2.44890828        1       0.00493066       0.02781836       0.01254071 
H      -0.23512519      -0.79065577       1.68064879        1       0.01125274       0.01394386      -0.00185469 
H       1.21874509       2.63327207       1.20032148        1       0.03123094      -0.02124734      -0.02469925 
H       1.69290668       2.42110069      -0.49311659        1       0.00978428      -0.01985838       0.04122409 
H      -0.00916379       2.55707370      -0.05860150        1      -0.02018769      -0.00356406      -0.00573613 
O       2.69058334      -2.19326963      -1.00067108        8       0.04198298      -0.02582195       0.00584700 
H      -0.05932221      -2.96950426      -2.31751449        1      -0.00249886      -0.00337704      -0.02246193 
H       0.91605860      -1.78927480      -2.87391779        1      -0.01133903       0.00151423       0.01646257 
H       2.40829948      -2.89414076       1.15947035        1       0.04170103      -0.01800878       0.01402815 
