22
Properties=species:S:1:pos:R:3:Z:I:1:forces:R:3 magmom=0 energy=-12017.9743504 dipole="0.4065448 0.0677049 -0.4096986" pbc="F F F"
C       1.56641613       0.37076803      -0.44291237        6       0.00658326      -0.00507721      -0.00357784 
C      -0.71559717       0.89648837      -1.56727899        6      -0.03197131      -0.01998076       0.00014645 
C       0.04427298       0.22301852      -0.42007704        6       0.00721791       0.00240527       0.00037960 
C       2.17316842      -0.17488089      -1.73398920        6       0.00740586      -0.00762106       0.00390340 
C       2.16295584      -0.33987292       0.77086146        6       0.00054204      -0.02694753      -0.01809507 
C      -0.33172614       2.36727701      -1.60466127        6       0.00685544      -0.04662063      -0.00145144 
N      -2.14273560       0.70992265      -1.36326242        7      -0.00650397      -0.00143041       0.00344847 
O       0.53602750       2.66014559      -2.58939680        8       0.01234268      -0.02905455       0.01871882 
H       1.81723417       1.43462668      -0.36718109        1      -0.01928636       0.00181823      -0.00503006 
H      -0.43960687       0.44135910      -2.51781813        1       0.02059156       0.01166664       0.00342882 
H      -0.34379522       0.63882573       0.51443896        1      -0.00608138      -0.01090333       0.00845384 
H      -0.22497665      -0.83624110      -0.43819471        1       0.00157763       0.01614982      -0.00407443 
H       1.93899002      -1.23667106      -1.84167301        1      -0.02281175      -0.00465519      -0.00872463 
H       3.25827770      -0.07531372      -1.72264828        1       0.02489497      -0.00838262       0.01627663 
H       1.80505380       0.35000345      -2.61485413        1       0.00677558       0.00214852       0.01655364 
H       3.24841598      -0.23562487       0.79710728        1      -0.02678385       0.03405570       0.01263990 
H       1.75423984       0.04752548       1.70531579        1       0.02764188       0.02401678      -0.02913322 
H       1.93665698      -1.40738635       0.72843758        1      -0.00973379      -0.01607696      -0.01001116 
O      -0.74081413       3.18959098      -0.83387930        8      -0.00091470       0.04960887       0.00005024 
H      -2.66868092       1.07774855      -2.14614655        1      -0.02142156      -0.00341103       0.00718155 
H      -2.43717866       1.22556196      -0.54039154        1       0.01323439      -0.00817050      -0.01261512 
H       0.74934507       3.59973421      -2.52157663        1       0.00984547       0.04646189       0.00153161 
