22
Properties=species:S:1:pos:R:3:Z:I:1:forces:R:3 magmom=0 energy=-12017.8676519 dipole="0.0144264 -0.6342164 -0.1256136" pbc="F F F"
C       1.47472578       0.21692430      -0.31307656        6      -0.00548041       0.02694645       0.00224771 
C      -0.31135221       0.16280207      -2.21054774        6      -0.00703834      -0.01045863      -0.00776154 
C       0.00684005       0.00504905      -0.71713745        6      -0.02365132       0.00311433       0.00974525 
C       2.09071669       1.43861786      -0.98995051        6       0.01393219      -0.00000684       0.00036772 
C       2.34072065      -1.02424492      -0.52136995        6       0.01175328       0.03518133       0.00476312 
C      -1.82715485       0.09198537      -2.33902777        6       0.02007291       0.00222071      -0.03550833 
N       0.43313252      -0.78358169      -3.01949542        7      -0.00947102       0.00776288      -0.01660048 
O      -2.26780331      -1.13734403      -2.67030227        8      -0.03894497      -0.00414611       0.02040566 
H       1.45415948       0.41677973       0.76244871        1      -0.00968658      -0.02281762       0.00264819 
H      -0.04225284       1.17450849      -2.51753650        1      -0.02877188      -0.00665602      -0.00332007 
H      -0.61980794       0.72278493      -0.18478323        1       0.00242887       0.02140027       0.00361806 
H      -0.31255588      -0.99209991      -0.39674934        1      -0.02694521      -0.00244718      -0.00137672 
H       2.19382064       1.27773763      -2.06486325        1      -0.00476564      -0.01417778       0.02397420 
H       3.08653790       1.63034672      -0.59039826        1       0.00753122       0.00754007       0.00962107 
H       1.48648840       2.33386177      -0.82773401        1       0.00470851      -0.02107883      -0.02285135 
H       3.31990932      -0.87830603      -0.06508541        1       0.02976926      -0.01265770       0.00521430 
H       1.88275782      -1.89995097      -0.05974994        1       0.01235215      -0.02486535       0.01885076 
H       2.48156249      -1.22948186      -1.57999659        1       0.00510637       0.00682952      -0.02880109 
O      -2.57423967       1.00676337      -2.13489453        8       0.00963650       0.02202515       0.01605572 
H       0.20758230      -0.68502881      -4.00135602        1      -0.01456083       0.01010454       0.00633762 
H       0.19571414      -1.73307120      -2.75654936        1       0.01835176      -0.01028734       0.00859494 
H      -3.23348840      -1.09918368      -2.67204644        1       0.03367317      -0.01352596      -0.01622490 
