22
Properties=species:S:1:pos:R:3:Z:I:1:forces:R:3 magmom=0 energy=-12017.9743504 dipole="-0.0314315 -0.478006 0.3289953" pbc="F F F"
C       1.18835162      -1.28559586      -0.83420436        6       0.00315120      -0.00259332       0.00807805 
C      -1.25714591      -0.57255512      -1.34340109        6      -0.01639654       0.03375129       0.00367138 
C       0.22124953      -0.17967617      -1.25955892        6       0.00450961      -0.00612473       0.00047859 
C       0.82436032      -1.86808366       0.52997262        6       0.00956769       0.00152770       0.00585101 
C       2.61314563      -0.73440471      -0.81784893        6      -0.00568486       0.00927356       0.03058831 
C      -1.38807608      -1.76969206      -2.27167589        6       0.01504491       0.02433452       0.03747563 
N      -2.02412426       0.56923571      -1.81373247        7      -0.00158678       0.00659874      -0.00319573 
O      -1.56891017      -2.92868400      -1.61402169        8       0.02852968       0.01785878       0.01463673 
H       1.14767367      -2.09185855      -1.57496476        1      -0.01688834       0.00951097      -0.00499015 
H      -1.62633363      -0.85515076      -0.35817111        1       0.01332289      -0.01953925      -0.00354169 
H       0.51382081       0.19508382      -2.24483533        1       0.00453280       0.01434635       0.00098869 
H       0.28881869       0.65935483      -0.56219544        1      -0.00577115      -0.01290154      -0.00894965 
H       0.85328597      -1.08714147       1.29359965        1      -0.02024512       0.01441361       0.00072598 
H       1.53455962      -2.64155893       0.82127518        1       0.03014166      -0.00447048       0.00515568 
H      -0.16849397      -2.31659517       0.53353848        1       0.01560737       0.00093573      -0.00894837 
H       3.33287170      -1.50498154      -0.53858919        1      -0.01746108       0.00130833      -0.04159742 
H       2.89883375      -0.32811936      -1.78926322        1      -0.00780803      -0.04528222       0.00884228 
H       2.69448136       0.07160461      -0.08550370        1      -0.00957885       0.01247900       0.01434789 
O      -1.32431010      -1.70465410      -3.46723515        8      -0.01278193      -0.03070700      -0.03682267 
H      -3.01539591       0.36394883      -1.80599879        1      -0.00847446       0.01920619      -0.00902169 
H      -1.77163277       0.77365209      -2.77506458        1       0.00203282      -0.00871614       0.01792229 
H      -1.60967473      -3.63497846      -2.27160584        1      -0.00376348      -0.03521008      -0.03169517 
