22
Properties=species:S:1:pos:R:3:Z:I:1:forces:R:3 magmom=0 energy=-12017.9806335 dipole="0.2063504 0.2960621 0.3409069" pbc="F F F"
C       1.42024334       0.03509592      -1.31950687        6       0.02112496      -0.03716216       0.00602718 
C      -0.93500968       1.08696488      -1.28731063        6       0.00632317      -0.01232525       0.00917843 
C       0.01627940       0.02707347      -0.71602934        6       0.02495883      -0.02689024      -0.00225743 
C       2.17956424      -1.18790204      -0.80814517        6      -0.00648926       0.00104551       0.01871095 
C       2.17377776       1.31403033      -0.96177958        6      -0.01654772      -0.01960621      -0.01301698 
C      -2.16516472       1.11054274      -0.39878521        6      -0.03238716       0.00943225       0.00099558 
N      -1.24496692       0.80259197      -2.67375847        7       0.02304866       0.00423898      -0.00970139 
O      -1.94541735       1.76127175       0.75649142        8       0.00034895       0.02471278       0.04039450 
H       1.32343358      -0.03139970      -2.40554846        1       0.00085942       0.00699957       0.00904596 
H      -0.46085667       2.06694319      -1.21800723        1      -0.01846494       0.00651476       0.00663520 
H       0.10092451       0.16171177       0.36614439        1      -0.02176578       0.01223727      -0.00301328 
H      -0.44382021      -0.95224486      -0.87997326        1      -0.03314229      -0.00335385      -0.00092909 
H       2.25323227      -1.15259617       0.28181340        1       0.03910844      -0.00018934       0.00219428 
H       3.19283176      -1.23007480      -1.21074868        1      -0.04714406       0.00274692      -0.00631951 
H       1.66398391      -2.11315101      -1.07078536        1       0.03317855       0.02060621      -0.03001640 
H       3.20369106       1.26986268      -1.31616803        1      -0.00230417      -0.00528439      -0.00798857 
H       1.71559413       2.20032720      -1.39985898        1      -0.00111272       0.00244162      -0.00434804 
H       2.19663796       1.44464103       0.12307200        1       0.02101116       0.01759288      -0.00447932 
O      -3.21185590       0.58522169      -0.65538948        8      -0.02444883      -0.00663154      -0.03759220 
H      -1.75795776       1.56975886      -3.08952072        1       0.00842335       0.00721066      -0.00038464 
H      -1.85921154      -0.00389482      -2.72089113        1       0.02976880      -0.01404404       0.00774545 
H      -2.75094775       1.69242627       1.28459839        1      -0.00434727       0.00970771       0.01911934 
