22
Properties=species:S:1:pos:R:3:Z:I:1:forces:R:3 magmom=0 energy=-12017.9743504 dipole="0.3812177 -0.0428667 -0.436522" pbc="F F F"
C      -0.32228534       0.40948339      -2.32943338        6       0.00622510       0.00536615      -0.00378780 
C       0.16694451      -1.56952967      -0.71936288        6       0.00500959       0.00015874       0.03736919 
C      -0.45773302      -0.18620333      -0.92726256        6      -0.00055186       0.00174753      -0.00740853 
C       1.13846268       0.53294549      -2.75807442        6       0.00082954       0.01102474      -0.00239514 
C      -1.00878178       1.77376615      -2.36908924        6       0.02816500       0.01264705       0.01004741 
C      -0.41259259      -2.52270848      -1.75259118        6       0.02298052       0.03802415       0.01582200 
N      -0.10037718      -2.00986646       0.63997390        7      -0.00321110      -0.00044028       0.00677254 
O       0.43239740      -2.77624021      -2.76757176        8      -0.00209720       0.03628223       0.00518005 
H      -0.83575713      -0.24667810      -3.04093825        1       0.00134705      -0.01272845       0.01538656 
H       1.24596727      -1.51860468      -0.86062349        1      -0.00580812       0.00238470      -0.02307087 
H      -1.51830592      -0.26729487      -0.67148603        1      -0.00334063       0.00919416       0.01147391 
H       0.00042507       0.48353390      -0.19487117        1      -0.00342610      -0.01334403      -0.00947750 
H       1.68130827       1.18109546      -2.06593724        1       0.00709902      -0.01112527       0.02106901 
H       1.21312187       0.97432946      -3.75160854        1      -0.00770601       0.02539988      -0.01583836 
H       1.64029260      -0.43352625      -2.79022830        1      -0.01482323       0.00896482      -0.00493482 
H      -0.94938584       2.21842541      -3.36333806        1      -0.02963649      -0.03286199       0.00887272 
H      -2.05904292       1.70449074      -2.08188939        1       0.01836246      -0.01823869      -0.03898543 
H      -0.52027119       2.45917040      -1.67326237        1       0.01490669       0.00313680       0.01486735 
O      -1.51253690      -2.99582930      -1.68984757        8      -0.02237811      -0.03811491      -0.02258354 
H       0.36612253      -2.88764317       0.83156726        1      -0.00739341      -0.00430346       0.02118908 
H      -1.09554242      -2.17257454       0.75342237        1       0.01644143       0.00681219      -0.00923653 
H      -0.02290029      -3.35920610      -3.38868748        1      -0.02099409      -0.02998601      -0.03033136 
