22
Properties=species:S:1:pos:R:3:Z:I:1:forces:R:3 magmom=0 energy=-12017.7497504 dipole="-0.1397823 -0.2823692 -0.4163175" pbc="F F F"
C       1.44159595      -0.66636050      -1.04986332        6       0.02054615      -0.00022677      -0.00681980 
C      -0.64349699      -0.48292072       0.55170567        6       0.01195450       0.00091248      -0.00940993 
C       0.00390601      -0.13098973      -0.79115331        6       0.02298381      -0.01591333      -0.01530130 
C       2.07600684      -1.48968521       0.07176359        6       0.00039430      -0.00297461       0.00047756 
C       2.36686834       0.49356293      -1.41150355        6       0.00984321       0.01793190      -0.00374142 
C      -2.13836802      -0.18494653       0.50197316        6       0.00626634      -0.00946541       0.00377844 
N       0.01417987       0.21770086       1.63489426        7      -0.00084913      -0.00216405       0.01335853 
O      -2.78151065      -0.91136809      -0.43036142        8       0.01632882      -0.00794193       0.00862821 
H       1.37779934      -1.32154518      -1.92198413        1      -0.00522752       0.00733978      -0.00620901 
H      -0.55814274      -1.56063683       0.71717322        1       0.00238233       0.01374666       0.01193059 
H      -0.65126364      -0.48198707      -1.58671679        1      -0.01043508       0.01461436      -0.00882367 
H       0.01102310       0.96223067      -0.86017372        1      -0.01754022      -0.01885107       0.01293347 
H       2.24315188      -0.88406211       0.95999759        1      -0.03409118      -0.00128190       0.00602903 
H       3.03900366      -1.87127178      -0.27000977        1      -0.00716932      -0.01415835      -0.00656773 
H       1.47012074      -2.35071053       0.35547555        1      -0.01352781       0.00641274      -0.00529601 
H       3.35754800       0.13817951      -1.69819850        1      -0.01472219      -0.01072927      -0.00001142 
H       1.96335042       1.08053187      -2.23771030        1       0.01794928       0.00740992      -0.00235076 
H       2.48448129       1.15513548      -0.54996970        1      -0.01134186       0.01022492      -0.00557976 
O      -2.70611658       0.59648827       1.21217671        8       0.00521538       0.01754413      -0.02879883 
H      -0.43721566       0.00005889       2.51487554        1       0.01289825       0.00889206       0.03988218 
H      -0.10415165       1.21676496       1.50455269        1      -0.00059598      -0.00467365       0.00411186 
H      -3.71400234      -0.66267842      -0.39506342        1      -0.01126200      -0.01664861      -0.00222020 
