22
Properties=species:S:1:pos:R:3:Z:I:1:forces:R:3 magmom=0 energy=-12017.9743504 dipole="-0.1592009 0.2989962 -0.4721992" pbc="F F F"
C      -1.56109489       0.13637878      -1.19462635        6      -0.00225095       0.00856501      -0.00185783 
C       0.71452015      -0.98322090      -1.75697741        6       0.03219541      -0.00006155       0.01961875 
C      -0.26967250      -0.50508260      -0.68469736        6      -0.00686834       0.00152199      -0.00297076 
C      -1.28415197       1.34413846      -2.08758767        6      -0.00577521       0.00818459       0.00524968 
C      -2.43132904       0.53865120      -0.00509419        6       0.01607891       0.02820773       0.00013786 
C      -0.01267895      -1.93821680      -2.69032521        6       0.00858157       0.04063238       0.02236186 
N       1.85155942      -1.61465164      -1.10767726        7       0.00413094      -0.00337545       0.00528603 
O      -0.34263638      -1.37586082      -3.86648665        8      -0.01074875       0.02201980       0.02734168 
H      -2.11426554      -0.60578027      -1.78083664        1       0.01784695      -0.00905609       0.00023119 
H       1.07519826      -0.13602407      -2.33922027        1      -0.02207081      -0.00031985      -0.00918372 
H      -0.51848692      -1.37054356      -0.06350430        1       0.00413757       0.00244167       0.01429328 
H       0.26972865       0.20298400      -0.05023552        1      -0.00403648      -0.01041539      -0.01244023 
H      -0.72999712       2.10472779      -1.53238523        1       0.02441864      -0.00431966       0.00176804 
H      -2.21638091       1.79570074      -2.42603167        1      -0.02599185       0.01281448       0.01075981 
H      -0.70888665       1.07689525      -2.97335604        1      -0.01418365      -0.00450596       0.01014753 
H      -3.37237119       0.98116589      -0.33433701        1       0.00619173      -0.04468794      -0.00123891 
H      -2.65477156      -0.31458771       0.63708023        1      -0.01585229       0.00551985      -0.04367832 
H      -1.91338814       1.28338631       0.60293834        1       0.01753313       0.01157485       0.00341144 
O      -0.28359335      -3.07322507      -2.41460982        8      -0.01369472      -0.03954892      -0.02669140 
H       2.55599088      -1.87233915      -1.78752683        1       0.01526382      -0.01053073       0.01335364 
H       1.54990444      -2.47114954      -0.65478194        1      -0.00250415       0.01765793      -0.00917359 
H      -0.82485360      -2.03571144      -4.38126171        1      -0.02240161      -0.03231882      -0.02672616 
