22
Properties=species:S:1:pos:R:3:Z:I:1:forces:R:3 magmom=0 energy=-12017.9743504 dipole="0.3296483 0.2309745 -0.4191637" pbc="F F F"
C       1.00475727       1.19458296      -0.53383395        6       0.00854172      -0.00091176      -0.00284426 
C      -1.09021574       0.19694572      -1.70172722        6      -0.01532815      -0.03427260       0.00343253 
C      -0.17371304       0.22147395      -0.47434900        6       0.00460937       0.00608241      -0.00005934 
C       1.90842975       0.92331946      -1.73489713        6       0.01006170      -0.00156945       0.00492521 
C       1.80181220       1.10553888       0.76650901        6       0.01683024      -0.02404938      -0.01387511 
C      -1.58889423       1.60960324      -1.96190448        6       0.03175143      -0.03444003       0.00545933 
N      -2.18223543      -0.73114788      -1.45823409        7      -0.00485378      -0.00437247       0.00369858 
O      -0.95952078       2.20962186      -2.98774012        8       0.02498022      -0.01441083       0.02271822 
H       0.61404823       2.21455175      -0.62014922        1      -0.01658362      -0.01000097      -0.00505433 
H      -0.53637120      -0.14233583      -2.57635978        1       0.01027423       0.02153978       0.00144733 
H      -0.79714713       0.46358251       0.39140244        1       0.00039497      -0.01123474       0.01005075 
H       0.19481821      -0.79766995      -0.33157502        1      -0.00737562       0.01354971      -0.00645290 
H       2.31417432      -0.08972629      -1.68064656        1      -0.01560984      -0.01774848      -0.00770807 
H       2.74965232       1.61588401      -1.74913422        1       0.02403221       0.00924127       0.01710216 
H       1.37849477       1.03183836      -2.68058597        1       0.00315032       0.00769783       0.01597874 
H       2.63958829       1.80404549       0.76630742        1      -0.04207703       0.01440281       0.00767701 
H       1.17712364       1.31282549       1.63663979        1       0.01169842       0.03140176      -0.03265841 
H       2.21230961       0.10065332       0.88606367        1       0.00165831      -0.01988795      -0.00740699 
O      -2.44366034       2.15095514      -1.31849904        8      -0.02840097       0.04003861      -0.00733546 
H      -2.76269065      -0.82702278      -2.28206764        1      -0.01636554      -0.01389825       0.00782196 
H      -2.77535235      -0.36924412      -0.71868282        1       0.01646601      -0.00087094      -0.01140135 
H      -1.31144558       3.10595858      -3.06296848        1      -0.01785456       0.04371364      -0.00551548 
