22
Properties=species:S:1:pos:R:3:Z:I:1:forces:R:3 magmom=0 energy=-12017.9743504 dipole="0.4836442 0.3023423 0.1113253" pbc="F F F"
C       0.08459775       1.53700173      -0.92124974        6       0.00351686       0.00430516       0.00714273 
C       0.84661696      -0.78027886      -1.81439205        6      -0.01067975      -0.03453259       0.01072880 
C      -0.25805583       0.06851314      -1.17698591        6       0.00154323       0.00744633      -0.00049247 
C       1.31031772       1.68861267      -0.02270348        6      -0.00405098       0.00631556       0.00847528 
C      -1.12293286       2.23890449      -0.30212166        6       0.01132448      -0.00954023       0.02889123 
C       1.28619132      -0.11125997      -3.10712631        6      -0.00782078      -0.00380904       0.04633982 
N       0.33999202      -2.12398065      -2.04011431        7      -0.00485291      -0.00564753      -0.00091819 
O       2.45730828       0.53956680      -2.99144616        8      -0.02210378       0.00993793       0.02756099 
H       0.29925249       2.01990194      -1.88102629        1       0.00157439      -0.01908293      -0.00582530 
H       1.70475711      -0.84183866      -1.14607775        1       0.00323846       0.02281926      -0.00637922 
H      -1.13091155       0.01166323      -1.83402756        1      -0.01168412      -0.00608292       0.00733361 
H      -0.53022391      -0.41717988      -0.23630464        1       0.00783066       0.00397498      -0.01423846 
H       1.12981254       1.21432911       0.94492597        1       0.00298161      -0.02468285       0.00005605 
H       1.52689248       2.74080517       0.16030097        1      -0.01274326       0.02566825       0.01156631 
H       2.20095683       1.24259192      -0.46402237        1      -0.01405735       0.01081211      -0.00316153 
H      -0.91948393       3.29597127      -0.12605723        1      -0.00946891      -0.01510415      -0.04146310 
H      -2.00602995       2.15640575      -0.93746787        1       0.03847996       0.02439977      -0.01066386 
H      -1.36561458       1.78637290       0.66168169        1       0.00411068      -0.01503581       0.01450370 
O       0.65743768      -0.14010697      -4.12766279        8       0.01095424       0.00974227      -0.04740544 
H       1.07178423      -2.72982328      -2.38976680        1      -0.01168052      -0.01931927      -0.00352107 
H      -0.38597671      -2.09731871      -2.74860292        1       0.01272516       0.00779728       0.01336758 
H       2.64444621       0.95850946      -3.84138560        1       0.01086265       0.01961839      -0.04189747 
