22
Properties=species:S:1:pos:R:3:Z:I:1:forces:R:3 magmom=0 energy=-12017.9743504 dipole="0.2357015 -0.4848233 -0.2170409" pbc="F F F"
C       1.40191449      -0.09052294      -1.71449816        6       0.00643573      -0.00583646       0.00253089 
C      -1.15780281      -0.50928448      -1.57078882        6      -0.02358046       0.00530084       0.02893581 
C       0.05675869       0.29559678      -1.09745744        6       0.00604528      -0.00111966      -0.00452139 
C       1.74186426      -1.55906008      -1.46834075        6       0.01004000       0.00073621       0.00515928 
C       2.49652708       0.81395399      -1.15070565        6       0.00293481      -0.02140480       0.02423548 
C      -1.23286039      -0.42581777      -3.08715731        6       0.01904509      -0.00999141       0.04197054 
N      -2.35312369       0.02023945      -0.93520554        7      -0.00456438       0.00475130       0.00359872 
O      -0.80327715      -1.54421212      -3.69799637        8       0.02487656       0.01047694       0.02488232 
H       1.35248020       0.07491162      -2.79645376        1      -0.01961042       0.00035168       0.00398660 
H      -1.04871340      -1.55504108      -1.28560369        1       0.01653209      -0.00022708      -0.01727067 
H      -0.14840577       1.34866974      -1.31136656        1      -0.00006592       0.00802580       0.01276584 
H       0.10451936       0.19059383      -0.01046744        1      -0.00428711      -0.00191861      -0.01604914 
H       1.79679566      -1.75895803      -0.39556079        1      -0.02206274      -0.00324160       0.01099142 
H       2.71034032      -1.80876077      -1.90101555        1       0.02982968       0.00801125       0.00119309 
H       1.00421901      -2.23054924      -1.90642361        1       0.01033476       0.01442224      -0.00311114 
H       3.46827034       0.57910299      -1.58698587        1      -0.03052830       0.02389080      -0.02311175 
H       2.28047324       1.86802167      -1.33124164        1       0.01017092      -0.03132627      -0.03323804 
H       2.57897993       0.67360619      -0.07084432        1      -0.00723457      -0.00946994       0.01763818 
O      -1.61907362       0.53590621      -3.69013651        8      -0.01485368       0.00759843      -0.04674518 
H      -3.16279711      -0.54067452      -1.16892864        1      -0.01658917       0.01180034       0.01037841 
H      -2.53277441       0.95753123      -1.28003576        1       0.01081571      -0.01664275       0.00281927 
H      -0.85417769      -1.39512845      -4.65094606        1      -0.00368398       0.00581285      -0.04703859 
