22
Properties=species:S:1:pos:R:3:Z:I:1:forces:R:3 magmom=0 energy=-12014.7772983 dipole="1.6727403 -0.1828636 -0.4111154" pbc="F F F"
C       0.21421020      -0.19242056       0.65159939        6       0.00713959      -0.00718515      -0.01800101 
C      -1.31187031      -1.00588172      -1.34220424        6      -0.01133337       0.01888511      -0.00493138 
C      -0.12502061      -0.15833723      -0.85354282        6      -0.00701063      -0.00606076      -0.00232366 
C       0.12895412      -1.58810100       1.25534987        6       0.00990713       0.01308825       0.01547285 
C      -0.62806065       0.78321024       1.47465907        6      -0.00398948      -0.02716201      -0.02076495 
C      -2.61223059      -0.74207489      -0.55490614        6       0.00707701       0.03264540       0.00569577 
N      -1.04750908      -2.44663743      -1.45916504        7       0.00885030       0.00908669      -0.01079699 
O      -3.16652687      -1.86918800      -0.28927000        8       0.02887956       0.00276671      -0.01866971 
H       1.25996844       0.12647646       0.73921331        1       0.00169065       0.01002108       0.00888347 
H      -1.57832640      -0.61673245      -2.33158018        1       0.01471622      -0.01909476      -0.00791226 
H       0.74488358      -0.47507240      -1.43293828        1       0.00317269       0.01695427       0.02457661 
H      -0.32582270       0.87960059      -1.12625843        1       0.01190832      -0.01468445       0.00981390 
H      -0.87536883      -1.99720129       1.12675948        1       0.00830112      -0.00392582       0.02953668 
H       0.32071838      -1.54422984       2.33046572        1       0.01622572       0.01473474       0.01697298 
H       1.91378447      -2.22233329       0.76397144        1       0.01458865      -0.00698137      -0.01113694 
H      -0.33380310       0.75456021       2.52519479        1      -0.00509480       0.01212728      -0.01524762 
H      -0.49146134       1.80190675       1.11146551        1      -0.00901979      -0.01579167       0.00468512 
H      -1.68984395       0.55139568       1.40030184        1      -0.01662326      -0.02410430       0.00036962 
O       1.01033112      -2.51988788       0.63924992        8      -0.04138520       0.01448498      -0.01920290 
H      -0.97831002      -2.75571069      -2.41667413        1      -0.01294247      -0.00402470      -0.00884172 
H      -0.21072682      -2.73404480      -0.96364451        1      -0.00472553      -0.01088183       0.00290087 
H      -2.55713006      -2.59703944      -0.65404834        1      -0.02033244      -0.00489764       0.01892121 
