22
Properties=species:S:1:pos:R:3:Z:I:1:forces:R:3 magmom=0 energy=-12017.9743504 dipole="0.1951254 -0.1409365 -0.5289413" pbc="F F F"
C      -0.96009799      -0.13456075      -2.12656924        6       0.00310538       0.00447742      -0.00722763 
C       0.49539866      -1.44955493      -0.42348803        6       0.01814757       0.01239190       0.03063963 
C      -0.44302272      -0.26908123      -0.69345776        6      -0.00357676      -0.00072829      -0.00668667 
C       0.18019612      -0.01157779      -3.13521450        6      -0.00248955       0.00973991      -0.00520474 
C      -1.88899695       1.07487780      -2.21888588        6       0.02647115       0.01782140      -0.00596583 
C      -0.20255995      -2.73069533      -0.85186499        6       0.01843949       0.04309082      -0.00510472 
N       0.84405707      -1.46360379       0.98767951        7      -0.00032807       0.00140660       0.00736019 
O       0.24662160      -3.20768767      -2.02625276        8      -0.00780263       0.03567344      -0.00365261 
H      -1.54440109      -1.02763637      -2.37445251        1       0.00956918      -0.00705033       0.01610256 
H       1.41038652      -1.34157501      -1.00484479        1      -0.01420236      -0.00556942      -0.01841743 
H      -1.29300849      -0.36774057      -0.01183955        1      -0.00080193       0.01197003       0.00913035 
H       0.09588769       0.63803663      -0.40785785        1      -0.00370810      -0.01592094      -0.00356170 
H       0.78575390       0.87068037      -2.91441116        1       0.01651003      -0.00319542       0.01831253 
H      -0.20963426       0.09990309      -4.14670286        1      -0.01820819       0.01825514      -0.01703423 
H       0.83028569      -0.88580878      -3.12899757        1      -0.01715353       0.00548293      -0.00044994 
H      -2.29361785       1.18775022      -3.22552488        1      -0.01656351      -0.03110655       0.02819616 
H      -2.72069885       0.99825927      -1.51693655        1       0.00630794      -0.02771068      -0.03717671 
H      -1.33930141       1.98822173      -1.98174930        1       0.01826399       0.00908813       0.00609989 
O      -1.07465087      -3.26407543      -0.22527010        8      -0.02033388      -0.04524823      -0.00105415 
H       1.52483349      -2.18711213       1.18236162        1       0.00196473       0.00188776       0.02268567 
H       0.01884747      -1.67778104       1.53800181        1       0.01004381       0.00511480      -0.01656022 
H      -0.26766653      -3.99758683      -2.23719772        1      -0.02365446      -0.03987041      -0.01043040 
