22
Properties=species:S:1:pos:R:3:Z:I:1:forces:R:3 magmom=0 energy=-12017.9743504 dipole="0.3018595 -0.0093943 -0.4964963" pbc="F F F"
C       0.00152395      -1.40915026      -1.82264961        6      -0.00164993       0.00192817      -0.00868832 
C       1.33667983       0.08571684      -0.17010704        6      -0.01188025       0.02878386       0.02125943 
C      -0.00153854      -0.55287270      -0.55534912        6       0.00089135      -0.00541922      -0.00528130 
C       0.46333870      -0.61780194      -3.04463804        6      -0.00873337      -0.00128679      -0.00708612 
C      -1.39686539      -1.98012982      -2.05201155        6      -0.00669042       0.02727663      -0.01628413 
C       2.38283583      -1.01209620      -0.05903085        6      -0.03280676       0.02664167      -0.02090389 
N       1.17243308       0.81147280       1.07867441        7      -0.00291851       0.00218806       0.00655395 
O       3.20977778      -1.06058022      -1.11841213        8      -0.03472717       0.00095583      -0.01183052 
H       0.68879990      -2.24988492      -1.67685079        1       0.00629679       0.01165795       0.01500038 
H       1.65183144       0.78901614      -0.94009901        1       0.00434126      -0.01985339      -0.01260571 
H      -0.32489975      -1.16485828       0.29183681        1      -0.01319274       0.00498835       0.00532501 
H      -0.72419411       0.26054203      -0.66013416        1       0.01424211      -0.00855499       0.00196453 
H      -0.20151724       0.23190729      -3.21724908        1       0.00452303       0.01968992       0.01449079 
H       0.44218779      -1.24083078      -3.93844568        1      -0.01924749      -0.01700055      -0.01718993 
H       1.47968206      -0.24225657      -2.93085423        1      -0.01051262      -0.01452869       0.00170171 
H      -1.42507481      -2.61503269      -2.93851194        1       0.01759776      -0.01514344       0.03870416 
H      -1.73885969      -2.56369580      -1.19596133        1       0.03527364      -0.01208182      -0.02827689 
H      -2.11183628      -1.16917664      -2.20617922        1      -0.00374959       0.02094493      -0.00077596 
O       2.46525618      -1.77252666       0.86433820        8       0.03545258      -0.03072561       0.01616113 
H       2.02073346       1.30867884       1.31949496        1      -0.00576745       0.00885735       0.02025777 
H       0.99076175       0.15456676       1.83045056        1       0.00191979       0.00579141      -0.01907964 
H       3.81675932      -1.79947103      -0.98223402        1       0.03133794      -0.03510960       0.00658362 
