22
Properties=species:S:1:pos:R:3:Z:I:1:forces:R:3 magmom=0 energy=-12017.8422392 dipole="-0.3837691 0.1941704 0.3293606" pbc="F F F"
C       1.07100409      -0.33088847       0.25252811        6      -0.00111118       0.01610328       0.00593020 
C      -0.94128305       1.07472553      -0.55471175        6      -0.00926543      -0.01051694       0.01307524 
C       0.11555964       0.02643586      -0.88762357        6       0.00487558      -0.00060354      -0.01734425 
C       1.79908142       0.86942098       0.85051162        6       0.00225069       0.01551435       0.00226437 
C       2.07066580      -1.36553504      -0.25847044        6      -0.01485321       0.01156775       0.01264762 
C      -2.14377505       0.91732348      -1.46879160        6      -0.01443176      -0.02541937       0.00866354 
N      -0.40657467       2.42969002      -0.70552426        7      -0.00217315      -0.00053104       0.01119392 
O      -3.30443280       1.20141599      -0.84756552        8      -0.01281731       0.02867793      -0.02427271 
H       0.47190836      -0.79160804       1.04588726        1       0.01205364      -0.01913251       0.00157830 
H      -1.27563206       0.95813406       0.47681271        1      -0.01665355       0.01683034       0.03546739 
H      -0.38323392      -0.88974530      -1.20933807        1      -0.02669016       0.00903774      -0.02386766 
H       0.68207932       0.37640131      -1.75552002        1       0.03292612       0.01068185      -0.01488088 
H       2.34036599       1.41853678       0.07783319        1       0.01237179      -0.02094349      -0.01182152 
H       2.51777977       0.53448055       1.60026206        1      -0.00720721       0.00574462      -0.00314940 
H       1.11352019       1.57278384       1.31902664        1      -0.01098226       0.00204732      -0.01633360 
H       2.73413460      -1.70809674       0.53585321        1      -0.00016604       0.02227074       0.00057248 
H       1.56073612      -2.23491529      -0.67469127        1       0.01644303      -0.01706179      -0.00910304 
H       2.68470635      -0.92607024      -1.04835072        1       0.02584077      -0.03261727       0.01975008 
O      -2.08791298       0.63977722      -2.63380779        8      -0.01383521      -0.00389358      -0.03955874 
H      -1.09454697       3.12596309      -0.44466451        1       0.00406399      -0.00472661       0.00906293 
H      -0.15530712       2.59157256      -1.67470093        1       0.00047504      -0.00216554       0.00981272 
H      -4.00699724       1.14921308      -1.50990766        1       0.01888573      -0.00086425       0.03031310 
