22
Properties=species:S:1:pos:R:3:Z:I:1:forces:R:3 magmom=0 energy=-12017.966821 dipole="-0.1568331 0.4160562 -0.3607771" pbc="F F F"
C      -0.22085798       1.42859203      -0.69304051        6       0.01731597       0.02164905       0.02707248 
C      -1.04715119      -0.92101102      -1.40196545        6       0.02089315       0.00314307      -0.00006356 
C      -0.10345757      -0.08678661      -0.53090130        6       0.01409741       0.01422499       0.02643079 
C       0.19172656       1.87137421      -2.09516234        6      -0.01713116       0.00781271       0.00983663 
C       0.63532061       2.12573666       0.36043905        6       0.02311648       0.00915858       0.00695329 
C      -2.47499626      -0.52625401      -1.06208356        6      -0.01604158      -0.00255439      -0.01458777 
N      -0.79101217      -2.33060010      -1.17124221        7       0.00111807      -0.04042068       0.00964596 
O      -2.99892683       0.34282687      -1.94517902        8      -0.03075724       0.00386082      -0.00749153 
H      -1.26145072       1.72248612      -0.52285051        1       0.00600193      -0.00062195      -0.02787117 
H      -0.87230977      -0.70014926      -2.45370185        1      -0.00050137      -0.01347937      -0.02704518 
H      -0.29539935      -0.35798621       0.51139740        1      -0.01004561      -0.01550653       0.01417866 
H       0.91766774      -0.40060822      -0.76120138        1      -0.00952681      -0.02460433      -0.01041559 
H       1.22553520       1.57411238      -2.29044616        1      -0.02197486       0.01087942      -0.00094786 
H       0.13130212       2.95550355      -2.19371470        1      -0.00182451      -0.00136469       0.00057372 
H      -0.43928759       1.43136914      -2.86693337        1      -0.01673727       0.02793427       0.00474338 
H       0.53933624       3.20957652       0.28910645        1       0.00835434      -0.00811008      -0.00277443 
H       0.34813537       1.82472690       1.36899166        1       0.00698456       0.00556140      -0.02484822 
H       1.68861756       1.87320719       0.21944663        1       0.00570528      -0.00266752       0.01116877 
O      -3.07920578      -0.92141074      -0.10467883        8      -0.01370064       0.00306311      -0.00917976 
H      -1.39692897      -2.90595903      -1.74301970        1       0.01672122      -0.00955900      -0.02114799 
H      -1.00339993      -2.55953313      -0.20673607        1      -0.00492310       0.00966596       0.03233008 
H      -3.89152196       0.56368054      -1.64609030        1       0.02285582       0.00193517       0.00343936 
