22
Properties=species:S:1:pos:R:3:Z:I:1:forces:R:3 magmom=0 energy=-12017.8038657 dipole="-0.2396699 0.3043792 0.4336293" pbc="F F F"
C       0.36942996       1.25073110      -1.44564528        6       0.00723457      -0.02052347      -0.01058996 
C      -1.48145954      -0.06811251      -0.21628436        6      -0.00565293       0.00487702       0.00948778 
C      -0.29783249      -0.11883097      -1.18142512        6      -0.00967640       0.00646807       0.01715569 
C       0.05638731       1.75865932      -2.85283648        6       0.01595807      -0.01429035       0.00524191 
C       1.88016503       1.16497860      -1.22918367        6      -0.00535242       0.00034396       0.00862461 
C      -2.63952337       0.71373213      -0.83065346        6      -0.01999424      -0.01945024      -0.00666487 
N      -1.06146710       0.36270934       1.10585913        7       0.00231358       0.00019078       0.00567108 
O      -3.38482062       1.36084860       0.08532598        8       0.00156950       0.01428865      -0.01497333 
H      -0.02682459       1.98585116      -0.73427506        1       0.01390720      -0.01725689      -0.03578503 
H      -1.87704649      -1.08432106      -0.11413433        1       0.00875728      -0.00351501      -0.01938951 
H       0.42339251      -0.80850211      -0.74212257        1       0.00933681       0.01491507       0.00038145 
H      -0.63399927      -0.54915741      -2.12556384        1      -0.00005111      -0.00105163       0.02731324 
H       0.43165747       1.04817407      -3.59178052        1       0.01497565      -0.01022852      -0.02208403 
H       0.54071329       2.71673934      -3.03931278        1      -0.00101461       0.04762604       0.00896503 
H      -1.01559790       1.86708471      -3.00996685        1       0.03280430      -0.00534553      -0.01067368 
H       2.36557258       2.12556799      -1.41107646        1      -0.02725416      -0.02650813      -0.00587790 
H       2.11608341       0.84740131      -0.21262811        1      -0.01857344       0.00747903      -0.00130633 
H       2.31521086       0.43268397      -1.91450680        1      -0.01422782       0.03133296       0.00145622 
O      -2.91475688       0.72743348      -1.99779510        8      -0.02639438      -0.00956394      -0.00608513 
H      -1.84246137       0.36852000       1.74886733        1       0.00021968      -0.01270845      -0.00026914 
H      -0.70747979       1.31058544       1.07454253        1       0.01614853      -0.00142563       0.02458474 
H      -4.11789625       1.77058527      -0.39253885        1       0.00496634       0.01434624       0.02481716 
