22
Properties=species:S:1:pos:R:3:Z:I:1:forces:R:3 magmom=0 energy=-12017.966821 dipole="-0.0840908 0.2673202 0.4993277" pbc="F F F"
C       0.07437400       1.36888015      -0.29928123        6      -0.00596784       0.02986640      -0.02395415 
C       0.80813306      -1.10095196      -0.03948070        6      -0.01885082       0.00342718      -0.00890502 
C       0.25675059      -0.00135891      -0.95168310        6      -0.00238886       0.02258632      -0.02416292 
C      -0.98743667       1.32560116       0.79749256        6       0.01844859       0.01025747       0.00239755 
C      -0.29797572       2.39846277      -1.36238378        6      -0.01846104       0.01149150      -0.01391332 
C       2.16355421      -0.64839767       0.47832490        6       0.00784156      -0.00766785       0.01887771 
N       0.88479093      -2.34534154      -0.78204375        7       0.00905100      -0.03481140      -0.02083632 
O       2.10182666      -0.13796128       1.72142863        8       0.02311607       0.00041004       0.02196185 
H       1.02611183       1.67855838       0.14396381        1      -0.01785318      -0.00978726       0.01996678 
H       0.14569543      -1.24134675       0.81314147        1      -0.00995727      -0.02177303       0.01844546 
H       0.93699022       0.08806388      -1.80377168        1       0.01744946      -0.01008726      -0.01167235 
H      -0.70237298      -0.35040409      -1.34215507        1       0.00709254      -0.02688721       0.00560480 
H      -1.94413202       1.00418320       0.37715325        1       0.01738102       0.00941877       0.01453686 
H      -1.13072293       2.31228907       1.23864575        1       0.00205652      -0.00113545      -0.00002401 
H      -0.72122102       0.63785677       1.59970869        1       0.01297188       0.02751158       0.01256174 
H      -0.39757089       3.39317438      -0.92690735        1      -0.00747589      -0.00837362      -0.00415259 
H       0.45490643       2.44628534      -2.15050937        1      -0.01820866      -0.00292653       0.01889272 
H      -1.25341720       2.13782556      -1.82312682        1       0.00042469       0.00136310      -0.01274337 
O       3.18530886      -0.71375651      -0.14584442        8       0.00746016      -0.00050959       0.01501524 
H       1.23870048      -3.09296366      -0.19816730        1      -0.02297898      -0.01570425       0.00659879 
H       1.54177245      -2.24265550      -1.54730304        1       0.01766471       0.01982429      -0.02139816 
H       2.99211570       0.14955905       1.96571097        1      -0.01881569       0.00350693      -0.01309730 
