22
Properties=species:S:1:pos:R:3:Z:I:1:forces:R:3 magmom=0 energy=-12017.9229672 dipole="0.0407894 0.3120324 0.4166715" pbc="F F F"
C       1.23602506       0.77350360      -1.01261989        6       0.00190678       0.00203271      -0.00258653 
C      -1.28852663       0.58353736      -1.55254147        6      -0.01209812       0.02410517      -0.01734410 
C      -0.06813420      -0.00835759      -0.82868964        6      -0.00540754      -0.00922507      -0.01898158 
C       1.61841314       1.00171825      -2.47304240        6       0.00345849      -0.00570173      -0.01245705 
C       2.36362991       0.04928315      -0.28053853        6       0.00215422      -0.01536358       0.00761792 
C      -2.55010063       0.19714733      -0.79510220        6      -0.03069291      -0.01290236      -0.00641274 
N      -1.32858854       0.16914805      -2.94078321        7      -0.00756095      -0.00602883      -0.01147062 
O      -2.66442993       0.85358460       0.37490327        8       0.01922805      -0.01911271      -0.03573685 
H       1.09321189       1.74921219      -0.53663185        1       0.00482971       0.02221305      -0.00964483 
H      -1.21564438       1.67322879      -1.51276097        1      -0.00759802       0.03760398       0.01932950 
H      -0.28214487      -0.06727520       0.24056155        1       0.03032359      -0.00582175      -0.00765016 
H       0.06484329      -1.03513178      -1.18401486        1       0.00409921      -0.02325830      -0.01643496 
H       1.67372425       0.05326262      -3.00973677        1       0.01176773      -0.02703438       0.01971666 
H       2.59571868       1.48275096      -2.52983871        1       0.00180563       0.01510004       0.00511135 
H       0.89729774       1.61943369      -3.00353564        1      -0.02294540       0.00465128       0.02928250 
H       3.28925128       0.62564550      -0.31714630        1      -0.03365986      -0.01158843       0.01252410 
H       2.11142740      -0.12994764       0.76632743        1       0.01969434       0.00616602      -0.02616267 
H       2.55577171      -0.91762480      -0.75247724        1       0.00035173       0.00773768       0.02149926 
O      -3.35820844      -0.60644964      -1.16804636        8       0.01715162       0.02230725       0.02859298 
H      -2.09671977       0.62049649      -3.42241982        1      -0.00087356       0.01015041      -0.00171230 
H      -1.51917929      -0.82556071      -2.98969897        1       0.01036900      -0.01692311       0.01956856 
H      -3.46753994       0.53817144       0.80833137        1      -0.00630378       0.00089264       0.00335143 
