22
Properties=species:S:1:pos:R:3:Z:I:1:forces:R:3 magmom=0 energy=-12017.9743504 dipole="0.4299185 -0.0052127 -0.3909718" pbc="F F F"
C       1.59535260      -0.41788911      -0.38122076        6       0.00420375      -0.00625961      -0.00500728 
C      -0.17712001       1.27126330      -1.24913246        6      -0.03724392      -0.00427204      -0.00403524 
C       0.14862852       0.07713226      -0.34637257        6       0.00751816      -0.00098124       0.00075462 
C       2.02726327      -0.81881731      -1.79028799        6       0.00331971      -0.01071698       0.00150662 
C       1.75208944      -1.59379477       0.58148206        6      -0.00905589      -0.01920249      -0.02456005 
C       0.77459843       2.40780780      -0.91079477        6      -0.01265497      -0.04323465      -0.01391553 
N      -1.56760861       1.64709943      -1.05306493        7      -0.00677265       0.00056749       0.00317480 
O       1.76145901       2.55433851      -1.81251940        8      -0.00209925      -0.03525615       0.00997254 
H       2.25118345       0.38926254      -0.03649999        1      -0.01640528       0.01084548      -0.00371663 
H      -0.03620668       1.00005421      -2.29480314        1       0.02321609       0.00080907       0.00568152 
H      -0.10900050       0.36440991       0.67730299        1      -0.01064668      -0.00915832       0.00548303 
H      -0.52666328      -0.73297406      -0.63371072        1       0.00834035       0.01449969       0.00027141 
H       1.38994628      -1.62294785      -2.16583415        1      -0.02195630       0.00758470      -0.00886172 
H       3.05406916      -1.18374740      -1.79002025        1       0.01793874      -0.02175920       0.01263800 
H       1.97620360       0.01574709      -2.48873633        1       0.00572610      -0.00512215       0.01629329 
H       2.77994091      -1.95855524       0.59734122        1      -0.01148687       0.03765803       0.02206665 
H       1.46410078      -1.32279430       1.59831666        1       0.03724649       0.01694393      -0.02270248 
H       1.11443330      -2.42273364       0.26707610        1      -0.01461323      -0.00748633      -0.01355625 
O       0.67653936       3.10070850       0.06282274        8       0.01938740       0.04374203       0.01314852 
H      -1.83403838       2.38483058      -1.69305703        1      -0.02144645       0.00406322       0.00675460 
H      -1.69051838       2.01121360      -0.11391026        1       0.00970941      -0.00942520      -0.01477176 
H       2.33314673       3.27036358      -1.50688576        1       0.02777512       0.03616072       0.01338151 
