22
Properties=species:S:1:pos:R:3:Z:I:1:forces:R:3 magmom=0 energy=-12017.9743504 dipole="-0.2472326 -0.2180567 0.4785843" pbc="F F F"
C       0.58802713       0.22741491       0.71861333        6      -0.00625380       0.00272583       0.00594712 
C       0.21772382      -1.51788590      -1.16949866        6      -0.01350436       0.00488504      -0.03486128 
C       0.52847306      -0.06899401      -0.78067530        6       0.00183932       0.00059562       0.00737254 
C      -0.71843120      -0.13194190       1.42344659        6      -0.00283037       0.00981395       0.00487620 
C       0.92220772       1.70303312       0.93072509        6      -0.03189983       0.00578452      -0.00170541 
C       1.23136065      -2.42834370      -0.49453148        6      -0.03435421       0.03218790      -0.00261224 
N       0.25583435      -1.63762095      -2.61772684        7       0.00153510       0.00158154      -0.00717153 
O       0.73192088      -3.06948636       0.57690135        8      -0.00779780       0.03576909       0.00262047 
H       1.39386469      -0.36754835       1.16255565        1      -0.00186081      -0.00990199      -0.01729340 
H      -0.77884378      -1.79271675      -0.82575595        1       0.01031383       0.00008983       0.02157428 
H       1.48797605       0.19092166      -1.23741426        1      -0.00171143       0.01151145      -0.00958574 
H      -0.23329689       0.55761505      -1.25176130        1       0.00860800      -0.01323486       0.00552911 
H      -1.54554430       0.44410086       1.00167375        1      -0.00899408      -0.00905214      -0.02133790 
H      -0.66069436       0.10227548       2.48613793        1       0.00496917       0.02358519       0.01934282 
H      -0.95569638      -1.19146799       1.33375477        1       0.01301529       0.01179905       0.00398860 
H       0.99373160       1.94447518       1.99203106        1       0.03364253      -0.02141343      -0.02113257 
H       1.86183957       1.97641701       0.44835129        1      -0.00388237      -0.02875399       0.03671253 
H       0.13666579       2.33004281       0.50366673        1      -0.01828286       0.00126879      -0.01083777 
O       2.36583522      -2.56018331      -0.85955712        8       0.03538430      -0.03355403       0.00918676 
H      -0.02143541      -2.56670989      -2.90882341        1       0.00302963       0.00145437      -0.02260077 
H       1.20625147      -1.49645884      -2.94403669        1      -0.01493847       0.00036911       0.01334629 
H       1.44444363      -3.59652395       0.96092376        1       0.03397327      -0.02751086       0.01864189 
