22
Properties=species:S:1:pos:R:3:Z:I:1:forces:R:3 magmom=0 energy=-12017.9743504 dipole="-0.0434842 0.0328713 -0.5785708" pbc="F F F"
C       0.47220808      -1.35628612      -1.79050251        6      -0.00610601      -0.00238310      -0.00624115 
C       0.89768195       1.06087888      -0.93935497        6      -0.01748175       0.01922933       0.02731273 
C       0.42793876      -0.36364997      -0.62775360        6       0.00197600      -0.00487661      -0.00551281 
C      -0.36388377      -0.88210378      -2.97745747        6      -0.00710483      -0.00868195      -0.00150487 
C      -0.00993576      -2.72350390      -1.30845474        6      -0.03007024       0.00987880      -0.00721992 
C       2.30244229       0.99194410      -1.51716986        6      -0.04626449      -0.00870792       0.00259291 
N       0.84676225       1.85284141       0.27857611        7      -0.00028040       0.00170397       0.00729869 
O       2.33187814       1.15903789      -2.85121843        8      -0.02530938      -0.02520016       0.00845255 
H       1.51109567      -1.46314478      -2.12176374        1       0.00195034       0.01687122       0.01058950 
H       0.24065715       1.51912787      -1.67770733        1       0.01080810      -0.01509094      -0.01507551 
H       1.05028816      -0.73901547       0.18992274        1      -0.00853087      -0.00328284       0.01199111 
H      -0.59346967      -0.28595702      -0.24625254        1       0.01483593       0.00369735      -0.00678838 
H      -1.40835583      -0.76288393      -2.67963471        1      -0.00491024       0.02123047       0.01197065 
H      -0.33227867      -1.61055200      -3.78731461        1      -0.00640390      -0.02959319      -0.00618685 
H      -0.00909836       0.06746140      -3.37669197        1       0.00507418      -0.01642179       0.00539474 
H       0.02928005      -3.46256142      -2.10972646        1       0.03753482       0.01257372       0.02167929 
H       0.58594830      -3.08804866      -0.47038523        1       0.01574179       0.00531200      -0.04374470 
H      -1.04708794      -2.65790482      -0.97288342        1      -0.01714674       0.01209807       0.00360721 
O       3.28950536       0.79525515      -0.86549669        8       0.04852330       0.00605737      -0.00842782 
H       1.07816220       2.81982598       0.08826889        1      -0.00051412       0.00881040       0.02107698 
H       1.53782084       1.50698303       0.93623656        1      -0.01140166      -0.00060123      -0.01645604 
H       3.25011827       1.06950513      -3.13713713        1       0.04508018      -0.00262299      -0.01480837 
