22
Properties=species:S:1:pos:R:3:Z:I:1:forces:R:3 magmom=0 energy=-12017.8604381 dipole="-0.0294573 0.2621966 -0.5873249" pbc="F F F"
C      -0.89353350       0.67501288       0.15847712        6      -0.01451917       0.01453841       0.01769068 
C      -0.50249546      -1.29715325      -1.47943285        6       0.00440497      -0.02226899      -0.00989818 
C       0.11544612      -0.16810165      -0.64561017        6      -0.03579449      -0.01478714       0.01388874 
C      -1.99252709      -0.18100121       0.78471735        6      -0.01059680       0.00632394       0.01160565 
C      -1.50305416       1.82692507      -0.64071365        6      -0.00591940      -0.01320164       0.00163790 
C       0.63543531      -2.16304079      -2.00350713        6       0.01975965       0.02798579      -0.01471854 
N      -1.41437563      -0.77574673      -2.47809548        7      -0.00265256      -0.02629889      -0.00488201 
O       0.90253241      -1.95552718      -3.30653574        8       0.00066514       0.00281803      -0.02371545 
H      -0.32110755       1.12259028       0.97476713        1       0.03498737       0.00380883       0.01255639 
H      -1.05584198      -1.95106821      -0.80422703        1      -0.01443196      -0.01698044      -0.01560675 
H       0.82208681      -0.63586314       0.04166239        1       0.00996740       0.01300305       0.00656094 
H       0.69460643       0.48314766      -1.31044988        1      -0.00474039      -0.01969949       0.03603458 
H      -2.66118600      -0.57005492       0.01541163        1       0.00694008       0.00352802      -0.01541783 
H      -2.59398770       0.41390337       1.47087702        1      -0.00082898       0.03211817       0.01938756 
H      -1.58408859      -1.02362505       1.34509600        1       0.02113154      -0.00021140       0.00836267 
H      -2.12768222       2.44369199       0.00747997        1       0.01293800       0.00746813      -0.00079648 
H      -0.72819303       2.46779918      -1.06437789        1       0.00649666      -0.00085150      -0.00456412 
H      -2.12439698       1.45169482      -1.45134693        1      -0.00288504      -0.01622958      -0.01533447 
O       1.26174360      -2.93958791      -1.33836735        8      -0.02009559       0.00794096       0.03669530 
H      -1.81474957      -1.52257671      -3.03069549        1      -0.00488556      -0.01167209      -0.03118800 
H      -0.91818894      -0.16734802      -3.11902071        1      -0.01922471       0.01236058      -0.00996585 
H       1.64722508      -2.52698788      -3.53354670        1       0.01928389       0.01030724      -0.01833279 
