22
Properties=species:S:1:pos:R:3:Z:I:1:forces:R:3 magmom=0 energy=-12017.966821 dipole="-0.2604754 -0.496595 0.1157817" pbc="F F F"
C      -0.60937290      -0.77378097       0.46588945        6      -0.01390664       0.02113504       0.02934832 
C       1.01834281      -0.90361609      -1.54399954        6      -0.01701921       0.01230021      -0.00233379 
C       0.21227490      -0.02485156      -0.58313110        6      -0.00768539       0.02139353       0.02414405 
C      -1.71444203      -1.60467812      -0.18269352        6       0.01206891      -0.00745167       0.01581532 
C      -1.20277962       0.22083202       1.45961231        6      -0.01919406       0.01616108       0.00607125 
C       1.97586055      -1.74839954      -0.71962388        6       0.00731978      -0.01912808      -0.00756218 
N       1.70720043      -0.05877079      -2.50185825        7       0.02549933       0.02221217      -0.02417279 
O       1.52351475      -2.99884675      -0.51608627        8       0.01731402      -0.02631673       0.00494783 
H       0.05417020      -1.44331815       1.02230852        1      -0.01512066      -0.01442404      -0.01940386 
H       0.34955633      -1.57247459      -2.08330636        1      -0.00289537      -0.01328690      -0.02699072 
H       0.91778137       0.64543978      -0.08338364        1       0.02159583       0.00871661      -0.00033080 
H      -0.44989126       0.59953996      -1.18801964        1       0.01649209      -0.00391450      -0.02274480 
H      -2.38114386      -0.95496549      -0.75596728        1       0.00960610      -0.01890285       0.01235035 
H      -2.31251992      -2.11362720       0.57359595        1       0.00231816      -0.00028997      -0.00024662 
H      -1.31628693      -2.36214496      -0.85732699        1      -0.00143673      -0.01808977       0.02745260 
H      -1.76392132      -0.29290634       2.24076723        1      -0.00268937       0.00658310      -0.00962709 
H      -0.42462001       0.81818194       1.93700226        1      -0.01807311      -0.01408317      -0.01311777 
H      -1.88698415       0.90258261       0.94954895        1       0.00176213       0.01211596       0.00381156 
O       3.01736242      -1.35503922      -0.27422156        8       0.00464460      -0.01611115      -0.00048789 
H       2.24187800      -0.61649324      -3.15620378        1      -0.01529534       0.00031486      -0.02416935 
H       2.37317337       0.53078572      -2.01534608        1       0.01107842       0.01471628       0.02869927 
H       2.17096478      -3.45966680       0.03474010        1      -0.01638348       0.01634995      -0.00145288 
