22
Properties=species:S:1:pos:R:3:Z:I:1:forces:R:3 magmom=0 energy=-12017.9743504 dipole="0.270227 0.4676279 -0.2145175" pbc="F F F"
C      -0.60765990       0.78493967      -2.03625067        6      -0.00028550       0.00893453       0.00141812 
C       1.24909057      -0.82149033      -1.18770765        6       0.00326309      -0.01744159       0.03327105 
C      -0.22067488      -0.39196870      -1.13936680        6      -0.00175462       0.00466408      -0.00577202 
C       0.21196818       2.03492248      -1.72238183        6      -0.00806900       0.00760522       0.00225990 
C      -2.10041158       1.07094714      -1.88130056        6       0.00793448       0.01926044       0.02490319 
C       1.61938639      -1.11867992      -2.63219137        6      -0.01501658       0.02587738       0.03645079 
N       1.43209050      -1.97936939      -0.32806751        7      -0.00163373      -0.00607300       0.00409731 
O       2.34132404      -0.13821927      -3.20313361        8      -0.02950027       0.01461837       0.01622551 
H      -0.42475177       0.50620064      -3.07994103        1       0.01084353      -0.01429441       0.00886861 
H       1.88696555      -0.01656622      -0.82431962        1      -0.00565432       0.01029495      -0.02082990 
H      -0.82276372      -1.26425898      -1.41031219        1      -0.00917411      -0.00376029       0.01135708 
H      -0.44878274      -0.15366153      -0.09723883        1       0.00816366      -0.00389337      -0.01406944 
H       0.05363373       2.33931527      -0.68502509        1       0.01324982      -0.01289156       0.01662337 
H      -0.09064557       2.86505005      -2.36020413        1      -0.02469565       0.01700646      -0.00748890 
H       1.27881578       1.87585854      -1.87557995        1      -0.01632239      -0.00221161      -0.00728918 
H      -2.41517261       1.89327331      -2.52510617        1       0.00697890      -0.04124142      -0.01695478 
H      -2.70500628       0.19402318      -2.11752288        1       0.02548046       0.02409926      -0.03098061 
H      -2.32185230       1.35741237      -0.85101019        1       0.00702713       0.00303652       0.01986290 
O       1.29616986      -2.11302984      -3.21909604        8       0.01542796      -0.02177143      -0.04184352 
H       2.40917741      -2.23960327      -0.27906343        1      -0.00116533      -0.01880906       0.01292113 
H       0.93368502      -2.77255371      -0.71812997        1       0.00497745       0.01933670       0.00178126 
H       2.50446152      -0.39140851      -4.12085452        1       0.00992513      -0.01234618      -0.04481186 
