22
Properties=species:S:1:pos:R:3:Z:I:1:forces:R:3 magmom=0 energy=-12017.9743504 dipole="0.3666313 -0.0031093 -0.4508743" pbc="F F F"
C      -0.49793585      -0.24273345      -2.36191832        6       0.00333997       0.00614051      -0.00574775 
C       0.78120276      -1.28890061      -0.35754699        6       0.00409063       0.01288380       0.03519779 
C      -0.37681427      -0.41332230      -0.84682738        6      -0.00118009      -0.00083324      -0.00749009 
C       0.77089321       0.34881882      -2.97257326        6      -0.00398120       0.00918280      -0.00527616 
C      -1.70513721       0.63871173      -2.67788756        6       0.01986234       0.02549588       0.00309165 
C       0.67923445      -2.64780538      -1.03204983        6       0.00418735       0.04690068       0.00258416 
N       0.71677721      -1.39238007       1.09100235        7      -0.00276795       0.00021865       0.00697432 
O       1.56069273      -2.80511412      -2.03542281        8      -0.01758671       0.03193454      -0.00428258 
H      -0.67145362      -1.22587044      -2.81333117        1       0.00655513      -0.00604168       0.01791915 
H       1.73413451      -0.83666873      -0.63002719        1      -0.00604693      -0.00693961      -0.02206896 
H      -1.30119637      -0.85125603      -0.45882709        1      -0.00708776       0.00982604       0.00897516 
H      -0.25925652       0.56450393      -0.37260155        1       0.00275288      -0.01565421      -0.00520155 
H       0.97455352       1.33172164      -2.54099687        1       0.01099882      -0.00064483       0.02228694 
H       0.65751868       0.47749799      -4.04872002        1      -0.01775079       0.01421059      -0.02093495 
H       1.64065961      -0.28635106      -2.80825507        1      -0.01719256       0.00017221      -0.00537283 
H      -1.83368803       0.76367005      -3.75382458        1      -0.01265656      -0.03816695       0.02049462 
H      -2.62561268       0.22423613      -2.26404440        1       0.02480559      -0.01924198      -0.03470059 
H      -1.56659697       1.63225100      -2.24628269        1       0.01195363       0.01315109       0.01171914 
O      -0.10978921      -3.49573495      -0.72202598        8      -0.00353722      -0.04865823      -0.00911086 
H       1.51427255      -1.90179322       1.45061528        1      -0.00501967      -0.00074207       0.02227964 
H      -0.11203293      -1.91421983       1.35643616        1       0.01198124       0.01007975      -0.01251803 
H       1.40723304      -3.67506404      -2.42602155        1      -0.00572014      -0.04327378      -0.01881816 
