22
Properties=species:S:1:pos:R:3:Z:I:1:forces:R:3 magmom=0 energy=-12017.9743504 dipole="-0.1233676 0.4587367 0.3347481" pbc="F F F"
C      -1.38191434       0.74340198      -0.95470625        6      -0.00453769       0.00144265       0.00769259 
C       1.20402277       0.67058613      -1.19091372        6       0.02375329      -0.02880824       0.00519970 
C      -0.13123126      -0.07542268      -1.27811074        6      -0.00592207       0.00483182       0.00002412 
C      -1.32189057       1.34690307       0.44705843        6      -0.00944459      -0.00404836       0.00471273 
C      -2.61911872      -0.14037059      -1.10433461        6       0.00449172      -0.00871630       0.03095449 
C       1.13314758       1.89651324      -2.08760383        6      -0.01248677      -0.02865320       0.03533010 
N       2.27570907      -0.23038569      -1.58192751        7       0.00350236      -0.00589127      -0.00307694 
O       0.94977803       3.03955928      -1.40328438        8      -0.02461579      -0.02484606       0.01119047 
H      -1.46300094       1.56165128      -1.67881486        1       0.01915133      -0.00489543      -0.00313921 
H       1.38393070       0.99871798      -0.16778110        1      -0.01728136       0.01578920      -0.00484020 
H      -0.21453866      -0.47406580      -2.29347041        1      -0.00091835      -0.01505006       0.00032797 
H      -0.06327156      -0.93041615      -0.60045218        1       0.00332115       0.01423116      -0.00811461 
H      -1.23820842       0.55522665       1.19544268        1       0.02298104      -0.00903337       0.00288293 
H      -2.22850660       1.91152644       0.66327844        1      -0.03069537      -0.00324000       0.00176316 
H      -0.47731197       2.02461223       0.56677472        1      -0.01383536      -0.00439880      -0.01066329 
H      -3.53290017       0.41955101      -0.90118049        1       0.02159660       0.00453558      -0.03936745 
H      -2.68947764      -0.56837544      -2.10543026        1      -0.00464146       0.04545675       0.01007405 
H      -2.57634210      -0.96803076      -0.39317668        1       0.01077565      -0.01025855       0.01521826 
O       1.21600178       1.86171688      -3.28325492        8       0.00865516       0.03423501      -0.03489733 
H       3.17854645       0.21114474      -1.46044692        1       0.01388375      -0.01620196      -0.00818506 
H       2.18624714      -0.45505444      -2.56743210        1      -0.00603325       0.00729947       0.01768503 
H       0.88461468       3.75792923      -2.04564533        1      -0.00169981       0.03621990      -0.03077148 
