22
Properties=species:S:1:pos:R:3:Z:I:1:forces:R:3 magmom=0 energy=-12017.9743504 dipole="0.2601142 -0.1455943 -0.498857" pbc="F F F"
C       1.36062681       0.68397777      -1.36359777        6       0.00691976      -0.00528933      -0.00246451 
C      -1.15643083       0.10518895      -1.64215091        6      -0.02274676      -0.01964369       0.02276152 
C       0.01691968       0.38408168      -0.69742642        6       0.00591457       0.00304635      -0.00369416 
C       1.81076609      -0.45394860      -2.27752258        6       0.01017632      -0.00257157       0.00425476 
C       2.41101918       0.95344197      -0.28740916        6       0.00534255      -0.03201502       0.00048373 
C      -1.29587728       1.27764980      -2.60020298        6       0.02129527      -0.03628989       0.02124235 
N      -2.35998854      -0.10133111      -0.85351170        7      -0.00473433       0.00014311       0.00580823 
O      -0.81389439       1.01474447      -3.82782100        8       0.02503087      -0.00951262       0.02508867 
H       1.25790395       1.59161026      -1.96865260        1      -0.01941831      -0.00419013       0.00243653 
H      -0.96419050      -0.79648191      -2.22255705        1       0.01582925       0.01388087      -0.01134772 
H      -0.26883465       1.23065814      -0.06618502        1      -0.00012244      -0.00409957       0.01450858 
H       0.11398449      -0.48702082      -0.04426966        1      -0.00476528       0.01028513      -0.01231163 
H       1.92099970      -1.37740546      -1.70401605        1      -0.02134700      -0.01195856       0.00441705 
H       2.77668980      -0.22769395      -2.72841604        1       0.02921437       0.00671361       0.00749379 
H       1.10495632      -0.63390945      -3.08769646        1       0.00918496       0.01271693       0.00886043 
H       3.37903055       1.19253421      -0.72964100        1      -0.03298103       0.03077703       0.00140634 
H       2.11563651       1.77516179       0.36669847        1       0.01102103       0.00443371      -0.04526062 
H       2.54483724       0.06660731       0.33565784        1      -0.00586839      -0.01993808       0.00465421 
O      -1.77088036       2.33753032      -2.30240484        8      -0.01713358       0.03852906      -0.02613177 
H      -3.13732794      -0.36407802      -1.44641088        1      -0.01695123      -0.00104896       0.01528418 
H      -2.61736983       0.76669704      -0.39527762        1       0.01203539      -0.01236289      -0.01014038 
H      -0.91194095       1.81585850      -4.35841911        1      -0.00589605       0.03839449      -0.02734949 
