22
Properties=species:S:1:pos:R:3:Z:I:1:forces:R:3 magmom=0 energy=-12017.9743504 dipole="0.2129822 -0.4416895 -0.3118726" pbc="F F F"
C       1.32868047       0.06317664      -1.80125456        6       0.00654243      -0.00616936       0.00102541 
C      -1.21741737      -0.37691897      -1.53317112        6      -0.02125341       0.00039112       0.03113719 
C       0.03870231       0.33961662      -1.02742739        6       0.00566394      -0.00034011      -0.00508245 
C       1.66941613      -1.42541206      -1.82888303        6       0.01042161      -0.00012352       0.00442019 
C       2.47320683       0.86272808      -1.18085630        6       0.00451342      -0.02513176       0.02004756 
C      -1.40625644      -0.04260217      -3.00441063        6       0.02204814      -0.01680195       0.03813224 
N      -2.35494805       0.03803811      -0.72881538        7      -0.00422062       0.00406445       0.00467997 
O      -1.03709932      -1.04332500      -3.82340349        8       0.02680607       0.00623971       0.02427811 
H       1.19926576       0.40612844      -2.83376415        1      -0.01924651      -0.00034185       0.00547938 
H      -1.09904527      -1.45539503      -1.43460458        1       0.01517342       0.00266947      -0.01828949 
H      -0.16997501       1.41333447      -1.04733840        1       0.00099651       0.00578488       0.01388812 
H       0.16752474       0.05541673       0.02018407        1      -0.00551455       0.00077339      -0.01577675 
H       1.80322019      -1.80081495      -0.81153215        1      -0.02120487      -0.00505098       0.01195841 
H       2.59936938      -1.59846519      -2.36994120        1       0.02991654       0.00774072       0.00021710 
H       0.89301414      -2.01566297      -2.31441239        1       0.01023577       0.01475325      -0.00145684 
H       3.40631444       0.70492149      -1.72324682        1      -0.03191444       0.02736286      -0.01642164 
H       2.25621420       1.93186425      -1.16695545        1       0.00726265      -0.02535123      -0.03865443 
H       2.63567199       0.54490391      -0.14877649        1      -0.00598260      -0.01228082       0.01633458 
O      -1.82599594       1.00549254      -3.40811142        8      -0.01825818       0.01522870      -0.04354904 
H      -3.18640277      -0.47724427      -0.98956244        1      -0.01561858       0.00988502       0.01343247 
H      -2.54944196       1.01938477      -0.89860323        1       0.01080280      -0.01684176      -0.00081951 
H      -1.15838382      -0.73794577      -4.73167897        1      -0.00716947       0.01353984      -0.04498053 
