22
Properties=species:S:1:pos:R:3:Z:I:1:forces:R:3 magmom=0 energy=-12017.6973984 dipole="0.1120436 0.584178 0.2411808" pbc="F F F"
C       1.20324034      -1.15218276      -1.32835841        6       0.00494757       0.01241781       0.00731391 
C      -0.91670242      -0.72731777       0.18333839        6      -0.02061881       0.01352488       0.01502455 
C      -0.10446989      -0.35651232      -1.06715456        6      -0.01784253       0.00249988       0.01999485 
C       1.60730882      -2.12844962      -0.22488770        6       0.00264865      -0.00222231       0.00578586 
C       2.34307069      -0.17240822      -1.59843252        6       0.00969090       0.01652515      -0.00199800 
C      -2.34195074      -0.25325654      -0.05304570        6      -0.00350832       0.03103584      -0.01956162 
N      -0.27993744      -0.18734313       1.37357312        7      -0.00507803       0.00464912       0.00147586 
O      -2.52578824       1.02960429       0.31701797        8       0.00163985       0.01058153       0.02043549 
H       1.04608953      -1.74146395      -2.23437604        1      -0.00353876       0.00988744      -0.01676452 
H      -0.98976946      -1.80934025       0.28085696        1       0.01853359      -0.02089669      -0.02602317 
H      -0.75429767      -0.44345975      -1.93935139        1       0.01109287      -0.01415562      -0.00603171 
H       0.13214732       0.70763888      -0.97062788        1      -0.01617023      -0.00620047      -0.01044536 
H       1.71321786      -1.61311572       0.72786875        1       0.02193372      -0.02772112       0.01590886 
H       2.56125220      -2.59105564      -0.48059792        1      -0.00717132      -0.00451979      -0.00614077 
H       0.88128288      -2.93253000      -0.10215074        1      -0.00686603       0.01391049       0.01567777 
H       3.26011554      -0.69259623      -1.87620892        1      -0.00673387      -0.01164365      -0.00859710 
H       2.08832066       0.52121065      -2.40123417        1       0.01084764      -0.00039374       0.00214065 
H       2.54516800       0.41266645      -0.69820127        1       0.01062339       0.00142758      -0.00283053 
O      -3.21187917      -0.90817433      -0.55327544        8      -0.00814808      -0.02286369       0.01168052 
H      -0.78003474      -0.45448199       2.21243135        1       0.00716746      -0.00836056      -0.00460767 
H      -0.27972837       0.82507317       1.33598726        1       0.00791144       0.00078470       0.00074289 
H      -3.43512973       1.26645014       0.09550581        1      -0.01136104       0.00173323      -0.01318076 
