22
Properties=species:S:1:pos:R:3:Z:I:1:forces:R:3 magmom=0 energy=-12017.9743504 dipole="-0.4783317 0.0538748 0.3255952" pbc="F F F"
C      -1.17715897       0.96305189      -1.16637500        6      -0.00837902      -0.00342162      -0.00008001 
C       0.73482048       0.24040553       0.43683515        6       0.02467344      -0.02831566      -0.00332937 
C       0.20013518       0.31999860      -0.99662674        6      -0.00597092       0.00470723      -0.00051263 
C      -2.24826583       0.24069719      -0.35170053        6      -0.00758630      -0.00271241      -0.00795119 
C      -1.55065492       0.97772287      -2.64772668        6      -0.01241318      -0.02965649       0.00451244 
C       0.73175627       1.63913989       1.03307882        6      -0.01825597      -0.03874257      -0.01971856 
N       2.06744013      -0.33986770       0.41313543        7       0.00666584      -0.00225547      -0.00259985 
O      -0.28472190       1.84434410       1.88931225        8      -0.01312867      -0.01444590      -0.03107898 
H      -1.12465448       2.00185149      -0.82202205        1       0.01681214      -0.00681553       0.00845348 
H       0.09088232      -0.39650506       1.04224958        1      -0.01515948       0.01843455      -0.00150137 
H       0.93332089       0.87855407      -1.58592060        1       0.00539299      -0.00859360      -0.01115190 
H       0.18256736      -0.70078916      -1.38718803        1       0.00133841       0.01315757       0.01024343 
H      -2.32493945      -0.80186824      -0.66952473        1       0.01740082      -0.01496084       0.00956702 
H      -3.22349845       0.70385364      -0.49972679        1      -0.02034483       0.00699515      -0.02218538 
H      -2.03486290       0.26026587       0.71648070        1      -0.00091665       0.01003779      -0.01492968 
H      -2.52072043       1.45033554      -2.80707068        1       0.03683609       0.02490777       0.00772678 
H      -0.80540467       1.50444155      -3.24564040        1      -0.02810807       0.02010906       0.03154898 
H      -1.61703532      -0.04408433      -3.02733156        1       0.00212142      -0.02086486       0.00367215 
O       1.53696611       2.48650529       0.76612005        8       0.01309396       0.04288621       0.02124966 
H       2.41652586      -0.47659562       1.35348991        1       0.02105101      -0.00778659      -0.00427919 
H       2.70620830       0.29831267      -0.04989650        1      -0.01792486      -0.00702693       0.00554098 
H      -0.23049716       2.75931520       2.19397302        1       0.00280173       0.04436321       0.01680309 
