22
Properties=species:S:1:pos:R:3:Z:I:1:forces:R:3 magmom=0 energy=-12017.9743504 dipole="-0.2387771 0.5296614 0.0126569" pbc="F F F"
C       0.36092547       1.03691478      -1.94077884        6      -0.00721128       0.00400753      -0.00372183 
C       0.54413158       0.24587915       0.52678351        6      -0.01094596      -0.03251587       0.01563627 
C       0.50435777      -0.12677297      -0.95867426        6       0.00098196       0.00610796      -0.00445475 
C      -0.89958922       1.85690215      -1.67341363        6      -0.00527765      -0.00045498      -0.01000113 
C       0.35465701       0.49640643      -3.36973956        6      -0.03210470      -0.00358283       0.00323378 
C       1.66035199       1.25548319       0.74294417        6      -0.03999068      -0.01717029      -0.01814746 
N       0.74053719      -0.96141559       1.31228850        7       0.00182523      -0.00706791       0.00173431 
O       1.21070698       2.51448927       0.88853033        8      -0.01538862      -0.01494336      -0.02978232 
H       1.22966491       1.69592394      -1.83382543        1       0.00188076      -0.01024086       0.01709285 
H      -0.39929508       0.70238050       0.82408927        1       0.00802035       0.01856270      -0.01276404 
H       1.42532800      -0.67385342      -1.18077665        1      -0.00321100      -0.01393420      -0.00477870 
H      -0.32567755      -0.82588551      -1.08958397        1       0.01065995       0.01107431       0.00659755 
H      -1.78708384       1.22694312      -1.77005012        1      -0.00486376      -0.01402413       0.01994446 
H      -0.99124466       2.66962832      -2.39353839        1      -0.00193861       0.00529992      -0.03038530 
H      -0.89827087       2.29961331      -0.67795397        1       0.00980151      -0.00255362      -0.01489610 
H       0.27501864       1.30409449      -4.09849062        1       0.03921539      -0.00879492       0.02053725 
H       1.25581835      -0.07916559      -3.58643374        1      -0.00109956       0.04614287       0.00770354 
H      -0.50266836      -0.16391445      -3.51659259        1      -0.01705336      -0.00966668       0.00830723 
O       2.82586754       0.97519865       0.76886609        8       0.04067280       0.02355275       0.01592397 
H       0.69400621      -0.75716424       2.30271173        1       0.00473242      -0.02051293       0.00888434 
H       1.66568992      -1.33659236       1.13054005        1      -0.01585126       0.01181432      -0.00326648 
H       1.97984019       3.09022516       0.98799268        1       0.03714596       0.02890028       0.00660254 
