22
Properties=species:S:1:pos:R:3:Z:I:1:forces:R:3 magmom=0 energy=-12017.9743504 dipole="0.497016 -0.111933 0.2795738" pbc="F F F"
C       0.45299277       0.67520943       0.59146100        6       0.00259486      -0.00533129       0.00683631 
C       0.90066557       0.22598064      -1.92765580        6      -0.01981148      -0.02061691      -0.02457167 
C      -0.11954148       0.37324957      -0.79428661        6       0.00313747       0.00312039       0.00621317 
C       1.44254586      -0.39591623       1.04559209        6      -0.00449007      -0.00334583       0.00983164 
C      -0.69135735       0.80661895       1.59511010        6       0.00212029      -0.03213067       0.00414585 
C       1.75576489       1.48235530      -1.97562986        6      -0.01891170      -0.03885950       0.01886506 
N       0.19133645       0.00055426      -3.17633058        7      -0.00557801      -0.00015427      -0.00501802 
O       2.97780721       1.30828203      -1.44197902        8      -0.02529667      -0.01270655       0.02336989 
H       0.97880029       1.63565624       0.55262064        1      -0.00113571      -0.00359307      -0.01965650 
H       1.54950024      -0.62861925      -1.73921360        1       0.00930086       0.01415701       0.01687482 
H      -0.80961745       1.17237999      -1.08063960        1      -0.01406759      -0.00533525      -0.00100942 
H      -0.69619719      -0.55480904      -0.76220017        1       0.01155022       0.01149689      -0.00375705 
H       0.94918328      -1.36966367       1.09295033        1      -0.00232052      -0.01142233      -0.02196046 
H       1.82531902      -0.17067178       2.04070695        1      -0.00943256       0.00483841       0.02903300 
H       2.29797682      -0.47551409       0.37563916        1      -0.01038062       0.01151068       0.00917946 
H      -0.31844623       1.04379890       2.59233788        1      -0.00258895       0.03185170      -0.03186939 
H      -1.40150853       1.57940424       1.29708438        1       0.04411237       0.00791807       0.01345140 
H      -1.23841068      -0.13596689       1.66482985        1      -0.00256586      -0.02000375      -0.00681975 
O       1.38732945       2.53063475      -2.42621088        8       0.02336454       0.04135445      -0.01438496 
H       0.84137124      -0.17751129      -3.93169101        1      -0.01431503      -0.00168562      -0.01773136 
H      -0.32987159       0.83499485      -3.42482369        1       0.01064133      -0.01193223       0.01208182 
H       3.43882491       2.15601065      -1.48379999        1       0.02407293       0.04086954      -0.00310389 
