22
Properties=species:S:1:pos:R:3:Z:I:1:forces:R:3 magmom=0 energy=-12017.9743504 dipole="0.1646378 -0.0728607 0.5525407" pbc="F F F"
C      -0.32092244      -1.48577304       0.05198288        6       0.00701418      -0.00378749       0.00428413 
C      -0.68756255       1.06397357      -0.28347805        6       0.01317834       0.02277309      -0.02700152 
C      -0.42575074      -0.30645623      -0.91626008        6      -0.00123999      -0.00566265       0.00495410 
C       0.78199086      -1.27712551       1.08774781        6       0.00642889      -0.00918887      -0.00151207 
C      -0.07686540      -2.77031476      -0.73827398        6       0.03169528       0.00675285       0.00196026 
C      -1.94330986       0.97172597       0.56890845        6       0.04373431      -0.01066838      -0.01403195 
N      -0.81581977       2.05555081      -1.33869284        7      -0.00107955       0.00295343      -0.00681265 
O      -1.68160997       0.90064181       1.88607679        8       0.02059413      -0.02466531      -0.01774550 
H      -1.27456656      -1.59183868       0.58089985        1      -0.00252457       0.01856491      -0.00703881 
H       0.14698351       1.34658150       0.35722746        1      -0.00881446      -0.01690233       0.01443423 
H      -1.23521009      -0.49547004      -1.62749968        1       0.00553353      -0.00157074      -0.01393836 
H       0.49781779      -0.21915360      -1.49440683        1      -0.01270953       0.00325193       0.01037574 
H       1.74910846      -1.16516275       0.59178262        1       0.00427883       0.02271158      -0.00916511 
H       0.85082791      -2.13490669       1.75631116        1       0.00478086      -0.03053375      -0.00022667 
H       0.60635824      -0.39531633       1.70297185        1      -0.00757247      -0.01489466      -0.00673264 
H      -0.01819147      -3.63657239      -0.07801998        1      -0.03987103       0.01829026      -0.01061444 
H      -0.86374710      -2.94654656      -1.47318262        1      -0.00582900      -0.00167379       0.04639803 
H       0.87038892      -2.70392615      -1.27762357        1       0.01707521       0.01157382      -0.00526850 
O      -3.05734409       0.94906429       0.12610830        8      -0.04497996       0.00715255       0.01970828 
H      -0.91270480       2.98471684      -0.94871116        1      -0.00302989       0.01237040      -0.01897202 
H      -1.65650928       1.87093355      -1.87614540        1       0.01444976      -0.00414549       0.01324802 
H      -2.52546822       0.81294449       2.34775058        1      -0.04111287      -0.00270141       0.02369750 
