23
Properties=species:S:1:pos:R:3:Z:I:1:forces:R:3 magmom=0 energy=-15095.6124423 dipole="0.4793922 -0.5561015 -0.610219" pbc="F F F"
C      -1.74246773      -0.58259642      -0.01241346        6      -0.00814474      -0.00398135      -0.00970268 
C      -0.84210924       0.05315423       1.03444883        6      -0.00615255      -0.00194833       0.00516730 
C      -0.26532679       1.38240570       0.61229856        6       0.00066458       0.00532990       0.01661118 
C      -0.20548956       2.42450432       1.53236003        6       0.02716983      -0.00232921       0.01677856 
C       0.20528294       1.61064880      -0.67916603        6      -0.01547372       0.02062210       0.00910032 
C      -2.87689389       0.36884335      -0.36476395        6       0.00090493       0.01225316      -0.01726820 
C       0.31710140       3.65953949       1.18220615        6       0.00245525       0.00287048      -0.00567916 
C       0.76846546       3.88146879      -0.11127308        6       0.00670492       0.00211504      -0.00200412 
C       0.70854661       2.85346128      -1.04090983        6       0.03112146      -0.00574343       0.01383588 
N      -2.35840258      -1.79252845       0.53000046        7       0.00704683      -0.04022460      -0.02476045 
O      -3.28421827       0.18225351      -1.63553925        8      -0.02390170      -0.01843255       0.00054559 
H      -1.17730805      -0.77149213      -0.92927104        1      -0.00337894      -0.02485059      -0.00505798 
H      -0.03910309      -0.65409933       1.26417698        1       0.00975873       0.01225563      -0.01404681 
H      -1.43166597       0.18408927       1.94171316        1       0.01191794       0.00932858       0.01573546 
O      -3.37686487       1.16606704       0.37110861        8       0.01708364      -0.01883205      -0.01475536 
H      -0.58075578       2.26346914       2.53505240        1      -0.00638492       0.00071261      -0.00023983 
H       0.36406350       4.45016541       1.91938846        1      -0.02137826       0.00846448      -0.02167214 
H       1.15909382       4.84978965      -0.39283759        1       0.01388180      -0.00371540      -0.00141154 
H       1.05740931       3.01451169      -2.05222048        1       0.00103307       0.00970108       0.00475736 
H       0.17623612       0.82177725      -1.42082615        1       0.00626115       0.01613064       0.02217633 
H      -2.79069806      -2.33933844      -0.20435903        1      -0.00468645       0.00187464       0.02256025 
H      -1.65800385      -2.37346470       0.97515815        1      -0.01910011       0.01634528      -0.03011816 
H      -4.01606691       0.79008075      -1.80147543        1      -0.02740267       0.00205385       0.01944824 
