23
Properties=species:S:1:pos:R:3:Z:I:1:forces:R:3 magmom=0 energy=-15095.770369 dipole="0.2051507 0.029047 -0.4667038" pbc="F F F"
C      -1.52606684      -0.75252541      -0.00759250        6      -0.00693118       0.00617687      -0.01893247 
C      -0.73218556       0.11071705       0.99696040        6       0.00591539      -0.00197517       0.00287028 
C       0.40242141      -0.64741897       1.63519507        6       0.00491816      -0.02233317      -0.00495791 
C       1.71423542      -0.36038998       1.26869041        6       0.00214456      -0.00536872       0.01982593 
C       0.17620102      -1.65817576       2.56880827        6       0.00365153       0.00671582       0.01222066 
C      -2.30747050       0.17421842      -0.92825350        6      -0.00728460      -0.00690136       0.00563529 
C       2.77914428      -1.06475338       1.81402906        6       0.00689909       0.00310003      -0.01613146 
C       2.54278858      -2.07619127       2.73393080        6       0.01081396       0.00949174      -0.03066288 
C       1.23807950      -2.36878499       3.10963723        6       0.01913215       0.02679265       0.00921828 
N      -2.38489863      -1.67818603       0.70212062        7       0.02353691      -0.01007374      -0.01615717 
O      -1.56191568       0.64410091      -1.94313146        8       0.02460284      -0.01537972       0.03145462 
H      -0.81391836      -1.30939209      -0.61763516        1      -0.00333148      -0.00947580      -0.00005348 
H      -1.43682891       0.46665422       1.75240898        1      -0.01440666       0.00774221      -0.01105682 
H      -0.32907398       0.98559986       0.48590551        1      -0.01749343       0.01246116      -0.01599910 
O      -3.45555992       0.48211267      -0.77100073        8      -0.01048897      -0.00807306       0.00955787 
H       1.90173083       0.43022177       0.55186090        1       0.02217011      -0.01355414      -0.00443598 
H       3.79026453      -0.81800724       1.51708376        1      -0.00879122      -0.03013117       0.01742200 
H       3.36795825      -2.63393990       3.15641035        1       0.00161985       0.02003208       0.00360196 
H       1.04974105      -3.15218879       3.83222570        1      -0.02242244       0.01084872      -0.01661966 
H      -0.83746694      -1.89494974       2.85865402        1      -0.01448909       0.00637299      -0.00393173 
H      -3.19032980      -1.17444131       1.05848766        1      -0.01865593      -0.01617476      -0.00110413 
H      -2.73644593      -2.39582241       0.08142949        1      -0.01607387       0.01210506      -0.00066550 
H      -2.11837312       1.23472028      -2.46803271        1       0.01496428       0.01760141       0.02890146 
