23
Properties=species:S:1:pos:R:3:Z:I:1:forces:R:3 magmom=0 energy=-15095.8011478 dipole="0.7650425 -0.122695 0.1453126" pbc="F F F"
C      -1.66243782      -0.56333620       0.19394852        6      -0.01129301       0.00298222       0.00790589 
C      -1.09373091       0.64478863       0.95809727        6       0.01299857      -0.00128442       0.00781291 
C      -0.74908998       0.25625856       2.37148574        6      -0.00476837       0.00021299       0.01897310 
C       0.44245732      -0.40976151       2.65186831        6       0.00434342       0.01868231      -0.01072397 
C      -1.63838890       0.49899137       3.41435145        6       0.01577398       0.02815636       0.03403786 
C      -2.06315881      -0.20137457      -1.21938198        6       0.01824440      -0.01884706      -0.02502311 
C       0.74403404      -0.81604821       3.94366325        6      -0.02644159      -0.00119016      -0.02042315 
C      -0.14436942      -0.55519931       4.97807355        6       0.00008623      -0.00103122       0.00461107 
C      -1.33672897       0.10243084       4.71012251        6       0.01654310      -0.01461060       0.02430037 
N      -2.82178609      -1.09349420       0.87838439        7       0.00372327       0.00864734       0.00978726 
O      -1.12292280       0.53502165      -1.83783835        8       0.00359389       0.01973260      -0.01243833 
H      -0.84406638      -1.29123153       0.07253041        1      -0.00105184      -0.00244625       0.01432573 
H      -1.84413870       1.43751739       0.95838277        1       0.01998076      -0.03001074       0.00233400 
H      -0.20722040       1.01239499       0.44066356        1      -0.04311745      -0.01637160      -0.00597627 
O      -3.07086028      -0.55498521      -1.76123693        8       0.01600337       0.01754557      -0.00151849 
H       1.14425122      -0.60373535       1.84871752        1      -0.00024338      -0.00258931      -0.00783878 
H       1.67037664      -1.33702955       4.14369892        1       0.02359666       0.02477567      -0.00122847 
H       0.09487695      -0.85972793       5.98761186        1      -0.01423034      -0.01332989       0.00534095 
H      -2.03399313       0.30544440       5.51236250        1       0.00136212       0.00082795      -0.01355059 
H      -2.57429771       1.00149213       3.20611741        1      -0.00272717       0.00029136      -0.01505561 
H      -3.32794735      -1.74417758       0.29284607        1      -0.01091151       0.01729098      -0.02396191 
H      -2.55381368      -1.54977691       1.73966990        1      -0.00851981      -0.02100077      -0.00339864 
H      -1.42528860       0.69649754      -2.74062730        1      -0.01294530      -0.01643331       0.01170829 
