23
Properties=species:S:1:pos:R:3:Z:I:1:forces:R:3 magmom=0 energy=-15095.7160007 dipole="-0.2269236 -0.8270488 -0.3050036" pbc="F F F"
C      -1.68565714      -0.66243850       0.22878887        6      -0.01195676       0.00120173       0.00684171 
C      -0.56002693      -0.28435829       1.18641519        6       0.00647342       0.00537757      -0.00694213 
C       0.75293442      -0.02379568       0.49102875        6       0.01547398      -0.00897212      -0.00320015 
C       1.23463536       1.26909272       0.31573545        6      -0.00292730       0.00619919      -0.00196067 
C       1.51025772      -1.08627173       0.00360377        6       0.00086878      -0.02740750       0.00254688 
C      -2.12289931       0.53073315      -0.60235136        6      -0.01313453       0.00947786       0.01039178 
C       2.44094295       1.49512668      -0.33305590        6      -0.00261291      -0.00218713       0.00211134 
C       3.18679942       0.42887909      -0.81492555        6      -0.00387332      -0.01447583       0.01033393 
C       2.72001921      -0.86653219      -0.63976907        6      -0.01903172      -0.02056471      -0.00635335 
N      -2.86610358      -1.08594311       0.98245688        7       0.00096036      -0.03878211      -0.00139359 
O      -3.04926525       0.16284941      -1.50965923        8       0.02497117       0.02521743      -0.01521013 
H      -1.32093700      -1.42521861      -0.47254430        1      -0.01625637       0.01423584      -0.00781466 
H      -0.43884725      -1.11451226       1.88733319        1       0.00809635       0.01584103       0.00059228 
H      -0.87602337       0.58667486       1.75917513        1       0.01213458       0.00356941       0.00323944 
O      -1.74651251       1.65920196      -0.48132618        8      -0.02130349      -0.02290899      -0.01247628 
H       0.64775120       2.10094121       0.67945665        1      -0.00987221       0.02558114      -0.00208578 
H       2.79853345       2.50760166      -0.46336771        1      -0.00749909       0.00997496       0.00327343 
H       4.12586999       0.60381158      -1.32271820        1      -0.00324350       0.00949349       0.02074880 
H       3.30034135      -1.70694400      -0.99718193        1      -0.01381598       0.01266546      -0.02145277 
H       1.14874384      -2.10019526       0.13663335        1       0.02922270      -0.00831284       0.01427230 
H      -3.60604545      -1.38288747       0.35825361        1       0.01314842       0.01369647      -0.00469648 
H      -2.63621018      -1.86738103       1.58324697        1       0.00883729       0.00569705      -0.00516972 
H      -3.32531494       0.95663612      -1.98611420        1       0.00534023      -0.01461744       0.01440384 
