23
Properties=species:S:1:pos:R:3:Z:I:1:forces:R:3 magmom=0 energy=-15095.6052422 dipole="0.6747367 -0.2220696 -0.3277337" pbc="F F F"
C      -1.69520205      -0.72254241       0.12527643        6      -0.01814325      -0.01732471       0.01011318 
C      -0.59585856       0.15998515       0.74122123        6      -0.01561534       0.00199497      -0.01640030 
C       0.65272389      -0.58590569       1.15659627        6      -0.01308378       0.00030720      -0.00639171 
C       1.88469849       0.05900136       1.07808725        6      -0.00592285       0.00229450      -0.03661513 
C       0.63366547      -1.90367825       1.60746390        6       0.00759977      -0.00096077      -0.01074690 
C      -2.50100256      -0.00611050      -0.94351330        6       0.01645861      -0.01575567       0.00474687 
C       3.06108194      -0.59077609       1.41903780        6      -0.00597067       0.01618196      -0.02395034 
C       3.02852853      -1.90916740       1.85240674        6       0.00317650       0.02674724       0.00530198 
C       1.80782620      -2.56049831       1.95210499        6       0.01135487      -0.00341967      -0.02312101 
N      -2.63087028      -1.19906029       1.12762680        7      -0.01450884       0.00678674       0.04137707 
O      -1.72694807       0.64586788      -1.82640184        8       0.02821817      -0.00796713       0.03107369 
H      -1.19612868      -1.53067526      -0.43136862        1      -0.00582967      -0.00939152      -0.00793304 
H      -1.03987329       0.66173016       1.60421299        1       0.00678005      -0.00145458      -0.01286256 
H      -0.30645129       0.93074836       0.02905831        1       0.02493744      -0.00403982       0.00759303 
O      -3.69350975      -0.05781573      -1.04927647        8      -0.01208979       0.00754984       0.00749513 
H       1.91821347       1.08091569       0.72032057        1       0.02256719       0.00465282       0.00633741 
H       4.00440692      -0.06966212       1.32382007        1       0.00956024      -0.02055787       0.03067727 
H       3.94761410      -2.42391575       2.09865278        1      -0.03131753       0.00039117       0.02375283 
H       1.76766373      -3.58868312       2.28702851        1      -0.00034268       0.01277561       0.00938628 
H      -0.30221587      -2.44155882       1.68259386        1       0.01680982      -0.00647604      -0.01279468 
H      -3.50853511      -1.46235971       0.69863371        1      -0.01656027      -0.01230417       0.00630363 
H      -2.27059189      -1.97976526       1.65526551        1      -0.00016666       0.00086163      -0.01867824 
H      -2.31136751       1.01044916      -2.50251944        1      -0.00791139       0.01910839      -0.01466444 
