23
Properties=species:S:1:pos:R:3:Z:I:1:forces:R:3 magmom=0 energy=-15095.7273152 dipole="-0.1510577 -0.4608926 0.3787825" pbc="F F F"
C      -1.62585258      -0.60817500       0.18261188        6      -0.00173143       0.00008701      -0.00458114 
C      -1.02810325       0.42902547       1.15496094        6      -0.00362520      -0.02506564       0.02377211 
C      -0.34726971      -0.25348860       2.31093650        6       0.01823951      -0.02390406      -0.00744617 
C       0.96670300      -0.69754614       2.18145362        6       0.01913245      -0.01843209       0.00206938 
C      -1.02323359      -0.51384667       3.50020765        6       0.02579017       0.03569530      -0.00003533 
C      -2.14065628       0.15037195      -1.02191256        6      -0.01952331      -0.02483264      -0.00434450 
C       1.58941492      -1.38618558       3.21155419        6       0.02346296      -0.00828584      -0.00333981 
C       0.90452793      -1.64850577       4.39039912        6      -0.01717718       0.00595663      -0.01441001 
C      -0.40272213      -1.20658570       4.53259893        6      -0.01545156      -0.00663643       0.00148440 
N      -2.67415135      -1.36330302       0.84395206        7       0.01550596       0.00955725       0.00318740 
O      -3.45516506       0.40484804      -0.97647585        8      -0.03520458       0.00459981      -0.02215124 
H      -0.80069297      -1.21967038      -0.19850700        1       0.01073415      -0.00432192      -0.02040618 
H      -1.83932402       1.06858589       1.50416877        1      -0.01487142      -0.00666826       0.02926636 
H      -0.31554785       1.04306757       0.60380321        1       0.02290534      -0.00803454       0.00712962 
O      -1.43623912       0.52114295      -1.91921052        8       0.01654160       0.03037316       0.00975040 
H       1.50768470      -0.49896851       1.26344085        1      -0.00610457       0.00931866       0.00013781 
H       2.61243499      -1.71613186       3.09443312        1       0.01374964      -0.01537612      -0.00439623 
H       1.38691760      -2.19352328       5.19097349        1      -0.00489008       0.02894075      -0.00588618 
H      -0.94223497      -1.40190836       5.44941904        1      -0.01519455       0.00896775       0.00279191 
H      -2.04183254      -0.16676059       3.61487199        1      -0.03812926      -0.00427909      -0.00126107 
H      -3.15619097      -1.97360325       0.19681841        1      -0.00638307       0.00063198       0.01830600 
H      -2.28027759      -1.93504266       1.58089105        1       0.00959453       0.00829299      -0.00030570 
H      -3.67089507       0.91868389      -1.76552135        1       0.00262998       0.00341530      -0.00933167 
