23
Properties=species:S:1:pos:R:3:Z:I:1:forces:R:3 magmom=0 energy=-15095.6124423 dipole="0.4793952 -0.5561015 -0.6102184" pbc="F F F"
C      -1.74246790      -0.58259619      -0.01241306        6      -0.00815029      -0.00396027      -0.00970705 
C      -0.84210979       0.05315388       1.03444924        6      -0.00614818      -0.00193594       0.00516967 
C      -0.26532749       1.38240556       0.61229877        6       0.00066952       0.00533458       0.01661894 
C      -0.20549008       2.42450465       1.53235990        6       0.02717106      -0.00232459       0.01678226 
C       0.20528279       1.61064830      -0.67916568        6      -0.01547861       0.02061305       0.00910618 
C      -2.87689436       0.36884422      -0.36476311        6       0.00089361       0.01224879      -0.01725977 
C       0.31710050       3.65954003       1.18220539        6       0.00246008       0.00286262      -0.00567844 
C       0.76846530       3.88146856      -0.11127376        6       0.00670533       0.00210851      -0.00200310 
C       0.70854739       2.85346025      -1.04090965        6       0.03111354      -0.00574770       0.01383454 
N      -2.35840187      -1.79252909       0.52999977        7       0.00702878      -0.04024774      -0.02480852 
O      -3.28421762       0.18225522      -1.63553908        8      -0.02389594      -0.01843342       0.00055798 
H      -1.17730769      -0.77148879      -0.92927088        1      -0.00338301      -0.02486344      -0.00505983 
H      -0.03910400      -0.65409978       1.26417821        1       0.00976047       0.01225681      -0.01404825 
H      -1.43166707       0.18408934       1.94171277        1       0.01191424       0.00933012       0.01574724 
O      -3.37686738       1.16606682       0.37110967        8       0.01710087      -0.01884979      -0.01476682 
H      -0.58075488       2.26347011       2.53505310        1      -0.00638657       0.00071091      -0.00024719 
H       0.36406346       4.45016605       1.91938763        1      -0.02138155       0.00846304      -0.02167409 
H       1.15909419       4.84978884      -0.39283895        1       0.01388272      -0.00371005      -0.00141082 
H       1.05741064       3.01450902      -2.05222017        1       0.00103651       0.00970694       0.00475207 
H       0.17623518       0.82177591      -1.42082493        1       0.00626629       0.01613609       0.02217309 
H      -2.79069575      -2.33933930      -0.20436214        1      -0.00466594       0.00189835       0.02260103 
H      -1.65800200      -2.37346456       0.97515679        1      -0.01910320       0.01634270      -0.03011888 
H      -4.01606759       0.79008106      -1.80147343        1      -0.02740981       0.00206038       0.01943965 
