23
Properties=species:S:1:pos:R:3:Z:I:1:forces:R:3 magmom=0 energy=-15095.6124423 dipole="0.4793947 -0.5561013 -0.6102186" pbc="F F F"
C      -1.74246794      -0.58259621      -0.01241314        6      -0.00814875      -0.00396464      -0.00970602 
C      -0.84210974       0.05315396       1.03444917        6      -0.00614890      -0.00193882       0.00516936 
C      -0.26532737       1.38240558       0.61229873        6       0.00066859       0.00533324       0.01661725 
C      -0.20548996       2.42450456       1.53235993        6       0.02717039      -0.00232551       0.01678154 
C       0.20528286       1.61064833      -0.67916573        6      -0.01547748       0.02061470       0.00910495 
C      -2.87689438       0.36884405      -0.36476319        6       0.00089629       0.01224961      -0.01726146 
C       0.31710069       3.65953989       1.18220550        6       0.00245921       0.00286441      -0.00567864 
C       0.76846535       3.88146854      -0.11127366        6       0.00670549       0.00210990      -0.00200340 
C       0.70854731       2.85346036      -1.04090970        6       0.03111467      -0.00574657       0.01383506 
N      -2.35840199      -1.79252902       0.52999979        7       0.00703258      -0.04024270      -0.02479778 
O      -3.28421788       0.18225492      -1.63553902        8      -0.02389738      -0.01843286       0.00055541 
H      -1.17730783      -0.77148936      -0.92927093        1      -0.00338229      -0.02486056      -0.00505942 
H      -0.03910387      -0.65409968       1.26417796        1       0.00976011       0.01225645      -0.01404805 
H      -1.43166685       0.18408934       1.94171291        1       0.01191480       0.00932981       0.01574456 
O      -3.37686697       1.16606685       0.37110959        8       0.01709732      -0.01884624      -0.01476461 
H      -0.58075510       2.26346991       2.53505295        1      -0.00638611       0.00071132      -0.00024580 
H       0.36406346       4.45016591       1.91938772        1      -0.02138088       0.00846356      -0.02167348 
H       1.15909410       4.84978892      -0.39283875        1       0.01388267      -0.00371087      -0.00141092 
H       1.05741044       3.01450945      -2.05222024        1       0.00103600       0.00970571       0.00475299 
H       0.17623547       0.82177610      -1.42082514        1       0.00626506       0.01613475       0.02217376 
H      -2.79069614      -2.33933913      -0.20436168        1      -0.00467020       0.00189300       0.02259249 
H      -1.65800234      -2.37346462       0.97515700        1      -0.01910299       0.01634337      -0.03011924 
H      -4.01606751       0.79008113      -1.80147375        1      -0.02740837       0.00205884       0.01944140 
