23
Properties=species:S:1:pos:R:3:Z:I:1:forces:R:3 magmom=0 energy=-15095.6124423 dipole="0.4794006 -0.5561007 -0.6102182" pbc="F F F"
C      -1.74246844      -0.58259587      -0.01241224        6      -0.00815641      -0.00392525      -0.00971275 
C      -0.84211077       0.05315337       1.03445000        6      -0.00613959      -0.00191537       0.00517378 
C      -0.26532870       1.38240544       0.61229924        6       0.00067718       0.00534090       0.01663159 
C      -0.20549074       2.42450529       1.53235977        6       0.02717168      -0.00231651       0.01678858 
C       0.20528261       1.61064747      -0.67916494        6      -0.01548498       0.02059757       0.00911410 
C      -2.87689552       0.36884539      -0.36476146        6       0.00087531       0.01224370      -0.01724429 
C       0.31709912       3.65954100       1.18220400        6       0.00246826       0.00285033      -0.00567741 
C       0.76846500       3.88146819      -0.11127506        6       0.00670580       0.00209740      -0.00200145 
C       0.70854883       2.85345844      -1.04090940        6       0.03109883      -0.00575356       0.01383351 
N      -2.35840052      -1.79253039       0.52999867        7       0.00700554      -0.04028528      -0.02487635 
O      -3.28421624       0.18225829      -1.63553887        8      -0.02388694      -0.01843286       0.00058020 
H      -1.17730743      -0.77148324      -0.92927051        1      -0.00338887      -0.02488370      -0.00506333 
H      -0.03910531      -0.65410028       1.26417997        1       0.00976274       0.01225779      -0.01405046 
H      -1.43166848       0.18408942       1.94171257        1       0.01190740       0.00933213       0.01576493 
O      -3.37687229       1.16606576       0.37111191        8       0.01712972      -0.01888090      -0.01478894 
H      -0.58075313       2.26347193       2.53505438        1      -0.00638924       0.00070803      -0.00025958 
H       0.36406348       4.45016731       1.91938595        1      -0.02138690       0.00846099      -0.02167625 
H       1.15909448       4.84978754      -0.39284157        1       0.01388509      -0.00370007      -0.00140943 
H       1.05741288       3.01450451      -2.05221972        1       0.00104274       0.00971589       0.00474297 
H       0.17623410       0.82177366      -1.42082267        1       0.00627334       0.01614344       0.02216713 
H      -2.79069243      -2.33934036      -0.20436701        1      -0.00463560       0.00193182       0.02266181 
H      -1.65799849      -2.37346503       0.97515394        1      -0.01911286       0.01634301      -0.03012377 
H      -4.01606806       0.79008221      -1.80147043        1      -0.02742210       0.00207051       0.01942535 
