23
Properties=species:S:1:pos:R:3:Z:I:1:forces:R:3 magmom=0 energy=-15095.6124423 dipole="0.4794221 -0.5560992 -0.6102162" pbc="F F F"
C      -1.74246923      -0.58259380      -0.01240953        6      -0.00819498      -0.00378780      -0.00974469 
C      -0.84211425       0.05315082       1.03445343        6      -0.00610951      -0.00182785       0.00518597 
C      -0.26533326       1.38240435       0.61230105        6       0.00070947       0.00537494       0.01668389 
C      -0.20549497       2.42450817       1.53235843        6       0.02718623      -0.00228787       0.01681594 
C       0.20528189       1.61064350      -0.67916222        6      -0.01551656       0.02053700       0.00914922 
C      -2.87689881       0.36885146      -0.36475456        6       0.00079781       0.01221356      -0.01718659 
C       0.31709271       3.65954515       1.18219811        6       0.00249783       0.00279340      -0.00567520 
C       0.76846444       3.88146639      -0.11128026        6       0.00670081       0.00205195      -0.00199183 
C       0.70855416       2.85345093      -1.04090851        6       0.03105353      -0.00578246       0.01382842 
N      -2.35839488      -1.79253480       0.52999365        7       0.00687750      -0.04045461      -0.02522093 
O      -3.28421149       0.18227168      -1.63553691        8      -0.02385058      -0.01843810       0.00066592 
H      -1.17730481      -0.77145918      -0.92926997        1      -0.00341931      -0.02497117      -0.00506826 
H      -0.03911147      -0.65410401       1.26418890        1       0.00977210       0.01227049      -0.01405951 
H      -1.43167620       0.18409002       1.94171033        1       0.01188616       0.00934036       0.01584196 
O      -3.37689034       1.16606263       0.37112154        8       0.01724562      -0.01899979      -0.01486741 
H      -0.58074763       2.26347948       2.53505872        1      -0.00640277       0.00069718      -0.00030910 
H       0.36406201       4.45017243       1.91937932        1      -0.02140690       0.00845199      -0.02168931 
H       1.15909777       4.84978167      -0.39285149        1       0.01389224      -0.00366346      -0.00140603 
H       1.05742286       3.01448555      -2.05221769        1       0.00106356       0.00975389       0.00470707 
H       0.17622874       0.82176369      -1.42081386        1       0.00630779       0.01618227       0.02214748 
H      -2.79067570      -2.33934670      -0.20438892        1      -0.00449311       0.00210769       0.02294746 
H      -1.65798390      -2.37346459       0.97514177        1      -0.01912865       0.01632378      -0.03012042 
H      -4.01607376       0.79008487      -1.80145470        1      -0.02746823       0.00211473       0.01936606 
