23
Properties=species:S:1:pos:R:3:Z:I:1:forces:R:3 magmom=0 energy=-15095.7690956 dipole="0.1993902 0.0245162 -0.4634389" pbc="F F F"
C      -1.62199082      -0.84682751       0.02058014        6      -0.00209828       0.00265713       0.01489450 
C      -0.74893330       0.05241650       0.92383547        6       0.01718068      -0.00439345       0.00998997 
C       0.38439135      -0.68253849       1.59307039        6       0.00493462      -0.02733854      -0.01459759 
C       1.69942035      -0.40799187       1.22717847        6       0.00444328       0.00009786      -0.01645897 
C       0.15525822      -1.64914470       2.57061832        6       0.00366866      -0.01018990       0.01728116 
C      -2.37702385       0.06038217      -0.93797233        6      -0.00589719      -0.00966869      -0.00134942 
C       2.76420391      -1.07498128       1.81897116        6      -0.01240300      -0.01270464      -0.02443253 
C       2.52514151      -2.04329734       2.78274541        6      -0.01339283       0.02838622       0.00121999 
C       1.21673881      -2.32584212       3.15439895        6       0.00155799      -0.01050692       0.01275771 
N      -2.51359604      -1.66104063       0.82237611        7       0.01379736      -0.01687137      -0.00583178 
O      -1.62355449       0.45659549      -1.97721143        8       0.00210003       0.01666831      -0.01520211 
H      -0.96584598      -1.49240603      -0.56581620        1      -0.01093583       0.01754418       0.01356262 
H      -1.41191919       0.50436664       1.66674078        1       0.00753991      -0.00418103      -0.00284174 
H      -0.33143614       0.86289134       0.32621559        1      -0.01811584       0.01895690      -0.01533828 
O      -3.50999330       0.42015917      -0.78289838        8      -0.04198504       0.01396968      -0.01378024 
H       1.89160834       0.34103974       0.46880147        1       0.01650036       0.01671911       0.00027927 
H       3.77728477      -0.83656775       1.52253567        1      -0.01195100      -0.01532264       0.00317351 
H       3.35063022      -2.56969566       3.24465033        1      -0.02829736       0.01479367      -0.01224725 
H       1.02141377      -3.07883479       3.90607817        1      -0.00940181       0.00127162       0.01214944 
H      -0.86091354      -1.87690416       2.85993552        1      -0.00210404      -0.00676210       0.00657272 
H      -3.26512161      -1.07819668       1.17904989        1       0.03312106      -0.01545125      -0.01180136 
H      -2.95146900      -2.37764696       0.25636320        1       0.01927109       0.01417285       0.01462634 
H      -2.15959359       1.05362164      -2.51672768        1       0.03246717      -0.01184698       0.02737402 
