23
Properties=species:S:1:pos:R:3:Z:I:1:forces:R:3 magmom=0 energy=-15095.6318032 dipole="0.3022305 -0.2296702 0.5734208" pbc="F F F"
C      -1.68185108      -0.68655663       0.02134052        6       0.02092796       0.00068741       0.00340311 
C      -0.60289890      -0.09515450       0.93099704        6       0.00744689       0.01708313       0.00767747 
C       0.42593273       0.75923317       0.22936849        6       0.01221850      -0.02284924       0.01119823 
C       0.73676769       2.02558714       0.71789478        6      -0.00565416      -0.01968097       0.00557523 
C       1.10674209       0.29751187      -0.89582599        6      -0.01280193       0.01385686      -0.00505813 
C      -2.31242162       0.36391041      -0.87806925        6       0.00465976      -0.01632440       0.01620278 
C       1.70880074       2.80783125       0.10970374        6      -0.00952378      -0.01545069       0.00255660 
C       2.37887307       2.33846616      -1.01050033        6      -0.01054733      -0.01386329       0.00616237 
C       2.07229366       1.08122142      -1.51267717        6      -0.02676087       0.00541305      -0.01736729 
N      -2.74532395      -1.25519893       0.84495628        7       0.01437051       0.00798415      -0.00445202 
O      -2.67154340       1.47086627      -0.21507857        8       0.01499771      -0.01074078      -0.00268953 
H      -1.23498191      -1.41310603      -0.66261913        1       0.00593940       0.00902565      -0.00311947 
H      -0.10187400      -0.93277349       1.42697433        1      -0.02010485       0.00613985      -0.00050018 
H      -1.09952759       0.48741198       1.70668981        1      -0.01347839       0.03855765      -0.01138654 
O      -2.49854482       0.21267209      -2.05307096        8      -0.01470399       0.02725879      -0.00021448 
H       0.21344942       2.40079868       1.58858535        1      -0.01383758      -0.00858414      -0.00616283 
H       1.94304084       3.78404496       0.51271287        1      -0.01760527       0.00602605      -0.00309679 
H       3.13226043       2.94911579      -1.48974272        1      -0.00419748      -0.01219675       0.00225260 
H       2.58296245       0.71082967      -2.39119236        1       0.00629123      -0.01408615       0.00642555 
H       0.88076054      -0.68220918      -1.29954063        1       0.01108454       0.00797381       0.00456433 
H      -3.32614446      -1.89029594       0.31303215        1       0.01305210      -0.00168315       0.01138212 
H      -2.36087408      -1.76075983       1.63223330        1       0.01421604      -0.03153145      -0.02325064 
H      -3.09827976       2.05986668      -0.84980999        1       0.02401087       0.02698466      -0.00010248 
