23
Properties=species:S:1:pos:R:3:Z:I:1:forces:R:3 magmom=0 energy=-15095.7324445 dipole="-0.1535809 -0.5301919 0.3000603" pbc="F F F"
C      -1.63110103      -0.61298086       0.16637564        6       0.01241205      -0.01357095       0.00412292 
C      -0.99460172       0.37758782       1.16246013        6       0.01424093      -0.01483712       0.00102135 
C      -0.24471110      -0.35143875       2.24577273        6      -0.01515593       0.00582370       0.01469139 
C       1.08514615      -0.71704023       2.05107759        6       0.00783765       0.01056939       0.00560835 
C      -0.86893978      -0.71815366       3.43598248        6      -0.01825555       0.00682710       0.00628506 
C      -2.17854820       0.18823905      -0.99560244        6      -0.00839100       0.01763180       0.00592804 
C       1.77484345      -1.43021694       3.01978030        6       0.00097877      -0.02371843      -0.00531925 
C       1.13964153      -1.79958414       4.19773866        6       0.01054050      -0.00901372       0.00325337 
C      -0.18444045      -1.44182806       4.40438576        6      -0.00661195      -0.00940967      -0.01540471 
N      -2.65693882      -1.39667505       0.82855417        7       0.00419661      -0.02094189       0.00890137 
O      -3.51356021       0.30703325      -0.99190220        8      -0.00146712      -0.01428690      -0.01324005 
H      -0.81914878      -1.20915831      -0.26580606        1       0.01874016      -0.01031192      -0.01780499 
H      -1.79246544       0.98699733       1.58988088        1       0.00096164      -0.01341360      -0.00110588 
H      -0.31754459       1.02761717       0.60726760        1      -0.00090117      -0.00783929       0.01843820 
O      -1.48173284       0.69046979      -1.83322352        8      -0.02339159       0.01880855       0.02480019 
H       1.58685892      -0.42953836       1.13463597        1      -0.00673768      -0.00365585      -0.01064504 
H       2.80920730      -1.69837299       2.85409773        1       0.01394176      -0.00594089       0.00208259 
H       1.67536800      -2.36105129       4.95073214        1       0.00481398       0.00322591       0.00634281 
H      -0.68598626      -1.72903442       5.31956796        1       0.00162093       0.03678848      -0.01597720 
H      -1.90015646      -0.43302089       3.60346977        1      -0.01597504       0.00479994      -0.01763088 
H      -3.17263423      -1.96795926       0.17144825        1       0.00208558       0.02159043       0.01698198 
H      -2.23572103      -2.01061033       1.51446528        1       0.00933742       0.00543022       0.00806859 
H      -3.75073694       0.85050266      -1.75382730        1      -0.00482077       0.01544477      -0.02939815 
