23
Properties=species:S:1:pos:R:3:Z:I:1:forces:R:3 magmom=0 energy=-15095.445076 dipole="0.0252995 -0.3880428 0.4453903" pbc="F F F"
C      -1.74940343      -0.68221720       0.01527381        6       0.01434727      -0.00154467      -0.01811995 
C      -0.50604077      -0.09977408       0.75530876        6      -0.00171169      -0.01307915      -0.00963747 
C      -0.18410863       1.35936884       0.54975415        6       0.02999228      -0.01642179      -0.00256169 
C      -0.20718780       2.23741128       1.62867236        6      -0.00805388      -0.01450822       0.00091799 
C       0.19286614       1.84565572      -0.70158677        6       0.04506558       0.00967105       0.01837979 
C      -2.42971214       0.35468254      -0.85893619        6       0.01974253       0.02059048       0.01262098 
C       0.15319455       3.56821243       1.47422948        6      -0.00841831      -0.00369411      -0.01057155 
C       0.53299050       4.04076030       0.22725834        6       0.00288843       0.01399585      -0.00787992 
C       0.54419457       3.17741205      -0.86074856        6       0.00319213       0.01773542      -0.00759458 
N      -2.68632477      -1.20437466       1.00374285        7       0.01490885      -0.01712915      -0.03877064 
O      -3.22927188       1.18299599      -0.18253166        8      -0.00338074      -0.00110753       0.01413078 
H      -1.40395678      -1.43148969      -0.70128158        1      -0.00784300      -0.04001413       0.02089767 
H       0.36375819      -0.69034382       0.46463304        1      -0.00374754       0.00159342      -0.00718047 
H      -0.66574530      -0.26487810       1.82075140        1      -0.02528207      -0.01996909      -0.01975816 
O      -2.25506571       0.43431632      -2.04444566        8      -0.01960111       0.00412060       0.02413351 
H      -0.50302650       1.86927663       2.60266212        1      -0.01018609      -0.00047190       0.01363502 
H       0.14182436       4.23193228       2.32864801        1      -0.00699469       0.00140763      -0.00910803 
H       0.82667041       5.07391153       0.10483712        1      -0.01946526       0.02103790      -0.01542713 
H       0.83738188       3.54001256      -1.83638154        1       0.00892877       0.00694578      -0.01292041 
H       0.21057720       1.18083697      -1.55706836        1       0.01076773      -0.00020327       0.03279154 
H      -3.48293032      -1.63853231       0.55340512        1      -0.02320678      -0.00605618       0.02813173 
H      -2.23355403      -1.91584476       1.56448230        1      -0.00307494       0.00752634      -0.00695303 
H      -3.56240188       1.83230971      -0.81487289        1      -0.00886743       0.02957484       0.00084409 
