23
Properties=species:S:1:pos:R:3:Z:I:1:forces:R:3 magmom=0 energy=-15095.778527 dipole="0.0725202 -0.8137168 -0.0638096" pbc="F F F"
C      -1.56203903      -0.60129309       0.06897131        6       0.00128699       0.01011215      -0.00188765 
C      -0.95164954       0.34718548       1.10442168        6      -0.00977827       0.01738200      -0.00724079 
C      -0.21683619      -0.39714513       2.18759693        6      -0.01654886       0.00435730      -0.00267333 
C       1.13198285      -0.71512217       2.04329812        6      -0.01849559      -0.00167297      -0.00025963 
C      -0.87679578      -0.80095857       3.34690402        6      -0.01197291       0.00101703      -0.00167369 
C      -2.18423725       0.20031918      -1.05918707        6      -0.00165250       0.01049504      -0.00500789 
C       1.80747504      -1.41267680       3.03419854        6       0.01200633       0.02945631       0.02022198 
C       1.14124473      -1.80054546       4.18900106        6       0.00764723      -0.02577130      -0.00393528 
C      -0.20399086      -1.49627836       4.34214032        6       0.00856733       0.01218528      -0.00041426 
N      -2.55395327      -1.46660385       0.68655077        7      -0.00141884      -0.02325964      -0.00473865 
O      -3.15187288      -0.48054225      -1.69883349        8       0.01943343      -0.00333122      -0.00376785 
H      -0.73856916      -1.15399418      -0.41306000        1      -0.01001347      -0.02029639       0.02296813 
H      -1.76051957       0.93687596       1.53787054        1      -0.00422900      -0.00585492      -0.01083684 
H      -0.28111751       1.03376957       0.58985189        1       0.00514925      -0.00781693      -0.00002494 
O      -1.83777960       1.29577279      -1.39798556        8      -0.00465025      -0.00110928       0.01653662 
H       1.66042588      -0.39851300       1.15144509        1      -0.01116646       0.00204454      -0.00067080 
H       2.85912891      -1.63781096       2.91336018        1      -0.02107225      -0.00900174      -0.00452314 
H       1.66996872      -2.33265108       4.96746921        1       0.00399112      -0.01159048       0.00955998 
H      -0.72934150      -1.79007712       5.24158696        1       0.01398315      -0.01136906      -0.01637726 
H      -1.92764827      -0.56430896       3.46699076        1       0.02334536       0.02493379      -0.00353264 
H      -3.01040573      -2.05055725      -0.00190752        1       0.00338558       0.00874910       0.01111689 
H      -2.11311724      -2.06771420       1.37157738        1       0.01086749       0.00170474      -0.00987910 
H      -3.47305479       0.08127489      -2.41549496        1       0.00133507      -0.00136325      -0.00295991 
