23
Properties=species:S:1:pos:R:3:Z:I:1:forces:R:3 magmom=0 energy=-15095.4949653 dipole="0.2756838 -0.1711919 0.5470517" pbc="F F F"
C      -1.63574269      -0.64899654       0.05037919        6      -0.01063830      -0.00825905      -0.00115556 
C      -0.62030681       0.17068234       0.86877659        6       0.00285063       0.01174650       0.00601854 
C       0.70609096      -0.51976743       1.07913041        6       0.02032041      -0.00578791      -0.02098185 
C       1.89314842       0.18869358       0.91231268        6       0.01184245       0.01114794       0.02577217 
C       0.79008144      -1.86591946       1.42841360        6       0.00187032      -0.01912649      -0.04085314 
C      -2.40998605       0.25772114      -0.88933780        6       0.01163630       0.02920619      -0.02328530 
C       3.12621687      -0.42266872       1.09541012        6       0.00134489       0.00773465       0.02678699 
C       3.19391019      -1.76185523       1.44934662        6      -0.00029645       0.01222637      -0.00289167 
C       2.01858642      -2.48296379       1.60974668        6       0.00946968      -0.00295240       0.01526659 
N      -2.59538481      -1.30512190       0.93335815        7      -0.02650041      -0.01385866       0.02465431 
O      -3.04498550       1.24885934      -0.24721857        8       0.01791010       0.02234664       0.01240480 
H      -1.09449384      -1.34205915      -0.59831398        1       0.00027094      -0.00486288      -0.03962523 
H      -1.09310116       0.40463001       1.82516510        1       0.00493431       0.02994466       0.02217160 
H      -0.43719732       1.12808431       0.38195411        1       0.01271776       0.00163070      -0.01708102 
O      -2.44710933       0.12747578      -2.08098790        8       0.00054816      -0.01335611       0.00015252 
H       1.85140054       1.23432201       0.63205107        1      -0.00613645      -0.01268557      -0.01112995 
H       4.03455998       0.14911699       0.95595988        1      -0.01742586      -0.00688840       0.00947693 
H       4.15247623      -2.24142793       1.59576898        1      -0.01529863       0.00530995      -0.02001753 
H       2.05817495      -3.53132859       1.87251124        1      -0.00249356      -0.00419470       0.01505972 
H      -0.11082242      -2.45512261       1.54426799        1      -0.01421656      -0.00269030       0.00335925 
H      -3.15318754      -1.98269920       0.43018201        1      -0.00332356      -0.03694367       0.00208871 
H      -2.13138855      -1.78553058       1.69166891        1       0.01276116       0.01127753       0.00502332 
H      -3.49499228       1.78236408      -0.91464500        1      -0.01214728      -0.01096488       0.00878577 
