23
Properties=species:S:1:pos:R:3:Z:I:1:forces:R:3 magmom=0 energy=-15095.5920501 dipole="-0.0607439 -0.4093642 0.3495567" pbc="F F F"
C      -1.68059780      -0.72304526       0.05176893        6      -0.01872735       0.00331667      -0.02453280 
C      -0.63285201      -0.06270280       0.96199416        6      -0.02103600      -0.02126328       0.00566625 
C       0.51936354       0.59332686       0.24544546        6      -0.01668538       0.00717610      -0.00628933 
C       0.89078807       1.89343686       0.57094236        6       0.02673171      -0.00976310       0.02938637 
C       1.24897205      -0.08200360      -0.73158064        6      -0.01607017       0.02257989      -0.01615717 
C      -2.31090133       0.32829080      -0.84207255        6       0.00176537       0.02383377      -0.00746144 
C       1.96842082       2.50570957      -0.05451961        6      -0.00455481       0.02018301      -0.00589004 
C       2.67739681       1.82992929      -1.03499303        6       0.00079509       0.00918753      -0.00630085 
C       2.31060574       0.53450882      -1.37454368        6       0.02288704      -0.00848346       0.01274758 
N      -2.68320393      -1.36302890       0.89194657        7       0.00840237      -0.00395456      -0.01706842 
O      -3.26086219       1.04883922      -0.22623868        8      -0.00306080       0.00491554       0.00239452 
H      -1.17786679      -1.40378295      -0.64014687        1      -0.01564156      -0.01006026      -0.00328181 
H      -0.25671376      -0.84456907       1.62731363        1       0.01466974      -0.03135646       0.00676684 
H      -1.15096583       0.66093266       1.59113210        1       0.00256581      -0.00171858       0.02089284 
O      -1.98550408       0.52093774      -1.97923813        8       0.00055526      -0.02072011      -0.00833670 
H       0.33935432       2.42620894       1.33617158        1      -0.02060919       0.00374276      -0.01995783 
H       2.25176061       3.51170685       0.22384200        1      -0.01696846       0.01343437      -0.00827438 
H       3.50998669       2.30821738      -1.53274407        1      -0.00257830      -0.00666667       0.00121562 
H       2.85641299       0.00461410      -2.14310171        1       0.00692568      -0.02423707       0.00210707 
H       0.98211079      -1.09644191      -1.00058483        1       0.01205282       0.01652674      -0.00485867 
H      -3.44692056      -1.73694315       0.34290822        1       0.00125840       0.00000257       0.00148959 
H      -2.26727747      -2.13352912       1.39980867        1       0.00062858       0.01307684       0.01728440 
H      -3.58543129       1.69366605      -0.86876318        1       0.03669422       0.00024775       0.02845836 
