23
Properties=species:S:1:pos:R:3:Z:I:1:forces:R:3 magmom=0 energy=-15095.806367 dipole="0.7540648 -0.1474483 0.0043394" pbc="F F F"
C      -1.69243721      -0.70456364       0.15327129        6       0.00803526       0.00229697       0.01305164 
C      -1.06090050       0.41897252       0.99276314        6       0.01391548       0.01961006       0.00507891 
C      -0.53008053      -0.09642360       2.30406709        6      -0.01279546      -0.02435524       0.01528212 
C       0.75807481      -0.62147688       2.38768118        6      -0.00223650       0.00665905      -0.01324998 
C      -1.32111819      -0.08513481       3.45042156        6      -0.01430120      -0.01936889       0.01418329 
C      -2.19399000      -0.18641416      -1.17791091        6      -0.00628403       0.02849657       0.00327769 
C       1.24749968      -1.12339601       3.58528875        6      -0.00904679       0.01034391      -0.00741347 
C       0.44787850      -1.10977606       4.72062892        6      -0.00054816      -0.02759282      -0.00474585 
C      -0.83760400      -0.59001461       4.65021852        6       0.02773717       0.01752680       0.01200988 
N      -2.80540255      -1.31146006       0.85088296        7      -0.01196905      -0.01618911       0.03207400 
O      -1.29401885       0.60225029      -1.79052383        8       0.00014018      -0.03254261      -0.01075698 
H      -0.89405649      -1.41768801      -0.10278418        1       0.03272757       0.00769737      -0.01181299 
H      -1.82533136       1.17596433       1.17224904        1      -0.00682890       0.00287794      -0.00969877 
H      -0.25458264       0.87503074       0.42007186        1      -0.00737984       0.01457733      -0.00234809 
O      -3.25382675      -0.45966534      -1.66553204        8       0.03563626      -0.00267148      -0.01903018 
H       1.38641278      -0.62351296       1.50432264        1       0.00575691      -0.00439196       0.00347335 
H       2.25571335      -1.51515308       3.63469450        1      -0.03732080       0.00041420      -0.00355429 
H       0.82600830      -1.50114814       5.65551017        1      -0.00275355       0.01718078      -0.00318066 
H      -1.46079490      -0.56916000       5.53519144        1       0.00280569      -0.01046717      -0.03135610 
H      -2.32396936       0.32048252       3.39681521        1       0.00688130      -0.00969702      -0.01327810 
H      -3.39790455      -1.81575241       0.20376418        1      -0.01343016       0.00426556       0.03259542 
H      -2.48277888      -1.93856450       1.57480885        1      -0.00043848       0.00166016       0.00601566 
H      -1.66695129       0.85461828      -2.64445441        1      -0.00830297       0.01366953      -0.00661648 
