23
Properties=species:S:1:pos:R:3:Z:I:1:forces:R:3 magmom=0 energy=-15095.6017782 dipole="-0.0471448 -0.8632147 -0.4980829" pbc="F F F"
C      -1.71963531      -0.68343245      -0.01520716        6       0.01289336       0.02605073      -0.00058164 
C      -0.51758478      -0.12039304       0.74493676        6       0.00069019       0.01102001       0.02172315 
C      -0.72206606       0.24428253       2.19770413        6      -0.01115386       0.00543094       0.01078948 
C       0.25056065      -0.11333745       3.12704442        6       0.00262078       0.03711969       0.00577470 
C      -1.82967890       0.96186580       2.64511854        6      -0.01747502      -0.01397472      -0.00867783 
C      -2.62479443       0.40541305      -0.56299718        6       0.00767778      -0.02416323      -0.01833300 
C       0.12850288       0.23608542       4.46581615        6       0.00436239       0.00373391       0.00961423 
C      -0.97823167       0.94863134       4.89882505        6      -0.02786274      -0.02286945      -0.00428793 
C      -1.95625782       1.31012536       3.98097029        6      -0.00078419       0.00423399      -0.01453666 
N      -2.52428461      -1.58447527       0.79907170        7       0.00842571      -0.00140382      -0.02422483 
O      -3.69935006      -0.13016337      -1.17191233        8      -0.02146450      -0.00698049       0.02128359 
H      -1.31550472      -1.16518956      -0.91961190        1      -0.03058687      -0.00999542       0.01317274 
H      -0.16878937       0.75410391       0.19220371        1       0.01901249       0.00943292       0.01066494 
H       0.28010518      -0.86279975       0.69409775        1       0.01143786      -0.00381449      -0.00818377 
O      -2.42682756       1.58512532      -0.52758767        8       0.02282800       0.03656397      -0.01595226 
H       1.12607948      -0.66145418       2.79812644        1      -0.02856594      -0.02153793      -0.00385084 
H       0.89927873      -0.05012951       5.16798305        1       0.01305766      -0.01401796       0.01508441 
H      -1.08529856       1.21404374       5.94229111        1       0.02075431       0.01312384      -0.01989756 
H      -2.82417699       1.86920596       4.30588211        1       0.00696718      -0.01953946       0.00267025 
H      -2.60134038       1.25124010       1.94677811        1       0.00524011       0.01456653      -0.01741856 
H      -3.21630174      -2.06006180       0.23630832        1      -0.01577161      -0.02257105      -0.00718850 
H      -1.94150668      -2.27811056       1.24802343        1       0.03271256      -0.01159377       0.02532254 
H      -4.23142099       0.59698694      -1.51805835        1      -0.01501571       0.01118528       0.00703336 
