23
Properties=species:S:1:pos:R:3:Z:I:1:forces:R:3 magmom=0 energy=-15095.7782223 dipole="0.6538147 -0.0863894 -0.355544" pbc="F F F"
C      -1.55131652      -0.60977392       0.07640343        6      -0.00512663       0.00769279      -0.01126076 
C      -0.78163589       0.24326435       1.10677922        6      -0.01819765      -0.00076079      -0.00924990 
C       0.19576402      -0.58235739       1.90199162        6      -0.00693082       0.01428160      -0.00056395 
C       1.55276248      -0.54498352       1.59340734        6      -0.00583707      -0.02314044      -0.02371946 
C      -0.22961796      -1.41215458       2.93896634        6      -0.00918316      -0.00217788      -0.00927412 
C      -2.37124235       0.28281729      -0.83212748        6       0.03067280       0.01522283       0.01686428 
C       2.46582858      -1.31971626       2.29477523        6       0.00309355      -0.00560907      -0.00706760 
C       2.02911680      -2.15534844       3.31212946        6       0.01366351       0.00343983       0.00965439 
C       0.67924198      -2.19824391       3.63350308        6       0.00224843      -0.01520211      -0.01945353 
N      -2.43392536      -1.55523808       0.73205012        7      -0.01064442       0.02752762      -0.00008731 
O      -1.60296950       1.18119453      -1.47242784        8       0.00438491       0.01817755      -0.00522654 
H      -0.81210200      -1.08705980      -0.58014120        1       0.01518077       0.00137194      -0.00091830 
H      -1.52268908       0.70084089       1.76374087        1      -0.00019021      -0.00574513       0.02491229 
H      -0.24804555       1.03747242       0.58587621        1       0.00005610      -0.01368609       0.00517023 
O      -3.55535794       0.20869020      -0.99707790        8      -0.00727941      -0.03362438      -0.01502069 
H       1.89655920       0.10251708       0.79571460        1       0.01002180       0.00841723       0.00293152 
H       3.51814817      -1.26687897       2.04937600        1      -0.00308460      -0.01282435      -0.01224447 
H       2.73747097      -2.76528066       3.85537902        1       0.00486365      -0.00159383       0.01476950 
H       0.33503691      -2.84802738       4.42753218        1      -0.01447187       0.03193475       0.00689560 
H      -1.28142637      -1.44035821       3.19167700        1      -0.00893654       0.00915652       0.01931824 
H      -3.26247234      -1.72030010       0.17533987        1       0.01186137      -0.01513609      -0.00149808 
H      -1.96938682      -2.43138489       0.92125118        1       0.00994544       0.00425826      -0.01354005 
H      -2.17677905       1.70238516      -2.04835333        1      -0.01611002      -0.01198062       0.02860877 
