23
Properties=species:S:1:pos:R:3:Z:I:1:forces:R:3 magmom=0 energy=-15095.6124423 dipole="0.4794196 -0.5560995 -0.6102164" pbc="F F F"
C      -1.74246907      -0.58259402      -0.01240989        6      -0.00819123      -0.00380508      -0.00974155 
C      -0.84211378       0.05315110       1.03445302        6      -0.00611362      -0.00183824       0.00518406 
C      -0.26533269       1.38240446       0.61230082        6       0.00070572       0.00537134       0.01667762 
C      -0.20549454       2.42450785       1.53235854        6       0.02718520      -0.00229188       0.01681270 
C       0.20528197       1.61064397      -0.67916259        6      -0.01551296       0.02054492       0.00914521 
C      -2.87689831       0.36885080      -0.36475543        6       0.00080671       0.01221706      -0.01719369 
C       0.31709347       3.65954467       1.18219881        6       0.00249387       0.00280003      -0.00567530 
C       0.76846455       3.88146663      -0.11127962        6       0.00670091       0.00205745      -0.00199297 
C       0.70855344       2.85345188      -1.04090864        6       0.03106021      -0.00577948       0.01382909 
N      -2.35839566      -1.79253419       0.52999431        7       0.00689184      -0.04043641      -0.02518421 
O      -3.28421211       0.18227009      -1.63553713        8      -0.02385516      -0.01843764       0.00065553 
H      -1.17730505      -0.77146211      -0.92927009        1      -0.00341628      -0.02496073      -0.00506667 
H      -0.03911075      -0.65410367       1.26418785        1       0.00977112       0.01226951      -0.01405833 
H      -1.43167533       0.18408994       1.94171054        1       0.01188914       0.00933933       0.01583270 
O      -3.37688801       1.16606309       0.37112036        8       0.01723159      -0.01898523      -0.01485774 
H      -0.58074835       2.26347859       2.53505815        1      -0.00640133       0.00069852      -0.00030318 
H       0.36406213       4.45017181       1.91938016        1      -0.02140433       0.00845286      -0.02168813 
H       1.15909753       4.84978239      -0.39285021        1       0.01389111      -0.00366835      -0.00140665 
H       1.05742166       3.01448789      -2.05221793        1       0.00106068       0.00974932       0.00471150 
H       0.17622939       0.82176486      -1.42081496        1       0.00630378       0.01617815       0.02215016 
H      -2.79067766      -2.33934606      -0.20438632        1      -0.00450864       0.00208984       0.02291624 
H      -1.65798567      -2.37346453       0.97514317        1      -0.01912618       0.01632548      -0.03011970 
H      -4.01607330       0.79008441      -1.80145645        1      -0.02746206       0.00210933       0.01937326 
