23
Properties=species:S:1:pos:R:3:Z:I:1:forces:R:3 magmom=0 energy=-15095.6658909 dipole="0.379061 -0.134261 0.3700572" pbc="F F F"
C      -1.64305298      -0.74503893       0.18231614        6      -0.00448976      -0.00347248       0.03043194 
C      -0.62295461      -0.25044241       1.20630721        6      -0.00335251      -0.00649872       0.01132864 
C       0.76181856      -0.13573344       0.62463351        6      -0.01843856      -0.02348806      -0.03115211 
C       1.37765192       1.09666539       0.43949987        6      -0.00434712      -0.02534578       0.00413541 
C       1.43918256      -1.28798229       0.23137969        6       0.01462721      -0.01019160      -0.01211360 
C      -1.95523037       0.25594312      -0.91991307        6       0.00842890      -0.01757889       0.01299862 
C       2.64879928       1.17322860      -0.11451999        6      -0.01424386       0.01817626      -0.01072330 
C       3.31292485       0.01981103      -0.50630289        6      -0.00886918       0.01949976      -0.00900148 
C       2.70021434      -1.21474926      -0.33838924        6       0.03075446       0.00312363       0.03261008 
N      -2.92276219      -1.01595350       0.83711648        7       0.00015488       0.00316971       0.00102135 
O      -1.57393542       1.51138317      -0.64896117        8      -0.02118913      -0.02288827       0.02597761 
H      -1.23469004      -1.62071443      -0.33716200        1      -0.01769855       0.02119618       0.00988497 
H      -0.60747709      -0.96874656       2.03034565        1      -0.01776586      -0.02876221      -0.01647553 
H      -0.95916753       0.69968986       1.61807236        1       0.00102299       0.00302562      -0.01433920 
O      -2.53127728      -0.04756940      -1.92678755        8      -0.00726830       0.01748047       0.00700759 
H       0.84782293       1.99732250       0.72477796        1       0.03789745      -0.00921710      -0.00153407 
H       3.11728525       2.13811885      -0.24923037        1       0.01858913       0.02464639       0.00410235 
H       4.30128561       0.08251909      -0.94111030        1      -0.00957741       0.00029593      -0.00498115 
H       3.20695736      -2.11920114      -0.64627910        1       0.00965192      -0.00826265       0.01426500 
H       0.96964395      -2.25455014       0.37645220        1       0.01938992      -0.00272198      -0.00576863 
H      -3.59430148      -1.36621863       0.16333298        1       0.02318312       0.00891885       0.01465190 
H      -2.80076206      -1.72428898       1.55105825        1      -0.02872015       0.02717584      -0.02377952 
H      -1.85412632       2.06470743      -1.38887068        1      -0.00773969       0.01171909      -0.03854675 
