23
Properties=species:S:1:pos:R:3:Z:I:1:forces:R:3 magmom=0 energy=-15095.6124423 dipole="0.4793985 -0.5561011 -0.6102181" pbc="F F F"
C      -1.74246817      -0.58259595      -0.01241258        6      -0.00815487      -0.00393790      -0.00971147 
C      -0.84211035       0.05315348       1.03444969        6      -0.00614293      -0.00192247       0.00517239 
C      -0.26532822       1.38240540       0.61229902        6       0.00067461       0.00533936       0.01662733 
C      -0.20549061       2.42450501       1.53235974        6       0.02717214      -0.00231975       0.01678637 
C       0.20528270       1.61064772      -0.67916526        6      -0.01548334       0.02060302       0.00911184 
C      -2.87689499       0.36884510      -0.36476201        6       0.00088215       0.01224431      -0.01725046 
C       0.31709951       3.65954063       1.18220450        6       0.00246533       0.00285418      -0.00567792 
C       0.76846513       3.88146829      -0.11127455        6       0.00670549       0.00210147      -0.00200202 
C       0.70854833       2.85345908      -1.04090949        6       0.03110469      -0.00575197       0.01383362 
N      -2.35840101      -1.79252985       0.52999906        7       0.00701047      -0.04027140      -0.02485660 
O      -3.28421684       0.18225721      -1.63553880        8      -0.02389033      -0.01843373       0.00057156 
H      -1.17730746      -0.77148515      -0.92927072        1      -0.00338733      -0.02487692      -0.00506158 
H      -0.03910487      -0.65410027       1.26417941        1       0.00976202       0.01225804      -0.01404985 
H      -1.43166805       0.18408936       1.94171249        1       0.01191022       0.00933156       0.01575932 
O      -3.37687030       1.16606634       0.37111112        8       0.01711907      -0.01886892      -0.01477973 
H      -0.58075390       2.26347118       2.53505383        1      -0.00638847       0.00070911      -0.00025495 
H       0.36406331       4.45016679       1.91938661        1      -0.02138500       0.00846171      -0.02167579 
H       1.15909449       4.84978796      -0.39284052        1       0.01388411      -0.00370378      -0.00141010 
H       1.05741219       3.01450609      -2.05221985        1       0.00104032       0.00971301       0.00474631 
H       0.17623439       0.82177443      -1.42082356        1       0.00627144       0.01614139       0.02216944 
H      -2.79069344      -2.33934008      -0.20436534        1      -0.00464557       0.00192164       0.02264196 
H      -1.65799984      -2.37346466       0.97515507        1      -0.01910669       0.01634065      -0.03012001 
H      -4.01606819       0.79008162      -1.80147120        1      -0.02741763       0.00206727       0.01943024 
