23
Properties=species:S:1:pos:R:3:Z:I:1:forces:R:3 magmom=0 energy=-15095.5861888 dipole="-0.0710466 -0.7886503 -0.1343794" pbc="F F F"
C      -1.67945419      -0.62730756       0.10010740        6      -0.01457846       0.00283824      -0.01963865 
C      -0.64340950       0.16049212       0.91146261        6      -0.00894837       0.00921303      -0.00694938 
C       0.71605161      -0.48653104       1.00717227        6       0.00382087      -0.00447578      -0.01931948 
C       1.86486132       0.27705530       0.82251397        6       0.00963341       0.00808170       0.00520031 
C       0.86788177      -1.84175860       1.29032951        6      -0.00824404      -0.00969902      -0.00292674 
C      -2.45975976       0.28991040      -0.82694227        6      -0.00879358       0.01579408      -0.01850248 
C       3.12715754      -0.28711338       0.94227632        6       0.01224766      -0.00553697      -0.00303735 
C       3.26274054      -1.63463194       1.24046657        6       0.00492382      -0.00607151      -0.00917416 
C       2.12586478      -2.41434970       1.40359079        6       0.00127239       0.00547264       0.03938858 
N      -2.61172917      -1.33719705       0.97130258        7      -0.00781543       0.00077776       0.00603104 
O      -3.58077838      -0.29798004      -1.28343808        8      -0.01075513       0.00060884       0.01113807 
H      -1.14496579      -1.29414699      -0.59403033        1       0.01111966      -0.02512688       0.01036638 
H      -1.06079508       0.30171784       1.91082257        1       0.00314477       0.00511171       0.01228165 
H      -0.53347350       1.14903860       0.47179240        1       0.01768760       0.01430783      -0.01281726 
O      -2.12007194       1.38034958      -1.18432583        8      -0.01140151       0.03724629      -0.00256555 
H       1.76820360       1.32671244       0.57558882        1      -0.01046295       0.01360160       0.02083504 
H       4.00526399       0.32795147       0.79623142        1      -0.00252230      -0.00287357       0.01013123 
H       4.24501744      -2.07492167       1.34184321        1       0.00141627      -0.00953602      -0.02108814 
H       2.21702842      -3.46860023       1.62789389        1       0.00782037      -0.00160766      -0.00521733 
H      -0.00605557      -2.46739506       1.42356479        1      -0.01498449      -0.01955813       0.00548560 
H      -3.32815670      -1.81390383       0.43974165        1       0.01735968      -0.01105816      -0.04187191 
H      -2.12505650      -2.02699462       1.52693727        1       0.00934180       0.00850084       0.03278769 
H      -4.00464335       0.32477548      -1.88813028        1      -0.00128211      -0.02601082       0.00946289 
