23
Properties=species:S:1:pos:R:3:Z:I:1:forces:R:3 magmom=0 energy=-15095.5906487 dipole="0.030116 -0.8331241 -0.1686457" pbc="F F F"
C      -1.66434466      -0.63450730       0.06932563        6      -0.01701057      -0.00700487      -0.00756557 
C      -0.64040942       0.15650381       0.88367444        6      -0.00618654       0.02808725      -0.00954502 
C       0.67779892      -0.54530144       1.09538205        6       0.01316451      -0.00413372      -0.00482987 
C       1.86933581       0.15157103       0.91794984        6       0.01745671       0.01954378       0.01825910 
C       0.75258093      -1.88250874       1.47758003        6      -0.00108094      -0.01451028      -0.01041539 
C      -2.45711334       0.28027075      -0.85021709        6      -0.02660727       0.03417680      -0.00510544 
C       3.09679920      -0.45698641       1.13937858        6       0.01859880      -0.00219423      -0.00935537 
C       3.15412369      -1.78438053       1.53706611        6       0.00756213      -0.00460762      -0.00785595 
C       1.97527490      -2.49899063       1.69651989        6       0.00300094       0.00647897       0.02933099 
N      -2.61968815      -1.32503918       0.93508826        7      -0.01774442      -0.01430685       0.00926075 
O      -3.45106250      -0.39421863      -1.45891245        8      -0.01067126       0.01429132      -0.00729566 
H      -1.12623076      -1.31418171      -0.60763396        1      -0.00140680      -0.02376023      -0.00604194 
H      -1.10125514       0.39448400       1.84518152        1       0.00160637       0.00288812       0.01544955 
H      -0.45973971       1.10541786       0.38430776        1       0.01705624       0.02451239      -0.01298572 
O      -2.24377127       1.43812673      -1.06367968        8       0.00156678      -0.02319912      -0.01610822 
H       1.83323163       1.18568699       0.59880298        1      -0.00620963       0.00922013       0.01104788 
H       4.00928737       0.10658881       0.99448419        1      -0.01266315      -0.00701613       0.01445906 
H       4.10806935      -2.26023501       1.71723149        1       0.00505962      -0.00476929      -0.01413336 
H       2.00490367      -3.53695221       1.99918014        1       0.01304830      -0.00870108      -0.00490911 
H      -0.15267001      -2.46209797       1.60183933        1      -0.01163656      -0.02393363       0.01967784 
H      -3.27989262      -1.87002170       0.39571576        1       0.01511629       0.00138176      -0.03230468 
H      -2.14325231      -1.95068955       1.56955240        1      -0.00193470       0.01834966       0.01199348 
H      -3.91412591       0.22884009      -2.03371041        1      -0.00008485      -0.02079318       0.01897263 
