23
Properties=species:S:1:pos:R:3:Z:I:1:forces:R:3 magmom=0 energy=-15095.7142184 dipole="-0.1542942 -0.8108456 -0.3870798" pbc="F F F"
C      -1.69102848      -0.59094025       0.15804745        6      -0.00390221       0.01186775      -0.00558968 
C      -0.53409746      -0.19333496       1.06810994        6       0.00624557      -0.00226509      -0.01543737 
C       0.67382829       0.29945687       0.31192756        6       0.00944063       0.00023032      -0.00890831 
C       1.01861759       1.64682570       0.30924543        6      -0.00002021       0.00233585       0.00274645 
C       1.46905171      -0.59312684      -0.40339394        6       0.01163388      -0.00468861      -0.00124015 
C      -2.32686171       0.62853661      -0.48650172        6       0.00283690      -0.01725586       0.00596208 
C       2.13755606       2.09071416      -0.38229954        6       0.00616108       0.00783600       0.01052970 
C       2.92576219       1.19256851      -1.08733399        6      -0.00879718      -0.00243437       0.00030118 
C       2.58604971      -0.15314573      -1.09891899        6       0.00678195      -0.00773882       0.00524135 
N      -2.75071327      -1.23568027       0.93321241        7       0.00096673       0.00645419       0.00119397 
O      -3.26660350       0.25277372      -1.37621545        8      -0.02576297       0.01781718      -0.01791720 
H      -1.30769850      -1.21960359      -0.65700010        1      -0.01503720       0.01473885      -0.00669186 
H      -0.26072936      -1.07770847       1.64942419        1       0.00765171       0.01184939       0.01431025 
H      -0.88560442       0.56594526       1.76569379        1      -0.01338516      -0.01668039       0.00473700 
O      -2.08040703       1.77315439      -0.24599976        8       0.00094478      -0.00837259       0.00067250 
H       0.39407137       2.34813538       0.84668874        1       0.00578025       0.01160298      -0.01119695 
H       2.39630863       3.14082781      -0.36993280        1      -0.01837917       0.01174984       0.00538903 
H       3.80036773       1.53700137      -1.62323969        1      -0.02005450       0.00281047       0.00925700 
H       3.19789010      -0.86045116      -1.64196340        1      -0.00632651      -0.01511726      -0.00918738 
H       1.21610779      -1.64764781      -0.40780741        1       0.01228921      -0.00565859       0.00817950 
H      -3.50410727      -1.53578497       0.32782078        1      -0.01292134      -0.00632265      -0.00456602 
H      -2.39204717      -2.05199904       1.41078092        1       0.02466588      -0.01357121       0.00346775 
H      -3.68436146       1.05117274      -1.72401722        1       0.02918789       0.00081257       0.00874725 
