23
Properties=species:S:1:pos:R:3:Z:I:1:forces:R:3 magmom=0 energy=-15095.6124423 dipole="0.4794256 -0.5560987 -0.610216" pbc="F F F"
C      -1.74246955      -0.58259360      -0.01240901        6      -0.00819935      -0.00376636      -0.00974932 
C      -0.84211486       0.05315052       1.03445391        6      -0.00610437      -0.00181515       0.00518838 
C      -0.26533403       1.38240429       0.61230135        6       0.00071420       0.00537906       0.01669196 
C      -0.20549540       2.42450860       1.53235834        6       0.02718690      -0.00228288       0.01681980 
C       0.20528175       1.61064299      -0.67916176        6      -0.01552067       0.02052733       0.00915405 
C      -2.87689952       0.36885218      -0.36475357        6       0.00078629       0.01221002      -0.01717728 
C       0.31709185       3.65954578       1.18219724        6       0.00250276       0.00278543      -0.00567479 
C       0.76846425       3.88146619      -0.11128108        6       0.00670086       0.00204485      -0.00199070 
C       0.70855501       2.85344983      -1.04090836        6       0.03104489      -0.00578606       0.01382781 
N      -2.35839411      -1.79253562       0.52999298        7       0.00686320      -0.04048048      -0.02526598 
O      -3.28421063       0.18227360      -1.63553682        8      -0.02384503      -0.01843779       0.00067959 
H      -1.17730460      -0.77145573      -0.92926973        1      -0.00342342      -0.02498387      -0.00506980 
H      -0.03911228      -0.65410431       1.26418996        1       0.00977359       0.01227110      -0.01406070 
H      -1.43167709       0.18409006       1.94171021        1       0.01188205       0.00934164       0.01585301 
O      -3.37689341       1.16606192       0.37112291        8       0.01726331      -0.01901855      -0.01488057 
H      -0.58074650       2.26348064       2.53505954        1      -0.00640457       0.00069543      -0.00031681 
H       0.36406204       4.45017323       1.91937829        1      -0.02141019       0.00845075      -0.02169065 
H       1.15909798       4.84978090      -0.39285312        1       0.01389352      -0.00365765      -0.00140521 
H       1.05742424       3.01448275      -2.05221741        1       0.00106732       0.00975950       0.00470142 
H       0.17622806       0.82176224      -1.42081241        1       0.00631226       0.01618741       0.02214394 
H      -2.79067358      -2.33934751      -0.20439204        1      -0.00447233       0.00213124       0.02298844 
H      -1.65798168      -2.37346484       0.97514000        1      -0.01913580       0.01632440      -0.03012382 
H      -4.01607410       0.79008554      -1.80145285        1      -0.02747543       0.00212080       0.01935737 
