23
Properties=species:S:1:pos:R:3:Z:I:1:forces:R:3 magmom=0 energy=-15095.7792862 dipole="0.1403041 -0.7573607 -0.3025197" pbc="F F F"
C      -1.55389035      -0.52272778       0.05768673        6       0.01284446       0.00862657      -0.00672976 
C      -0.87371014       0.24405242       1.19496896        6       0.00256169      -0.00622690      -0.00584540 
C       0.17508270      -0.59976965       1.87065019        6       0.01211524       0.00149083      -0.01379160 
C       1.44736942      -0.70182192       1.31109013        6       0.02016593      -0.01175190       0.00628943 
C      -0.10101707      -1.32334939       3.02847703        6       0.01436265       0.00606698      -0.00203446 
C      -2.44720916       0.41075902      -0.73425694        6      -0.00475592       0.01304681      -0.00851107 
C       2.42328284      -1.49372556       1.89642355        6       0.01022307       0.00337534       0.00478637 
C       2.14123241      -2.20309286       3.05707542        6      -0.00522124       0.01055587      -0.01355337 
C       0.87553302      -2.11724870       3.61913183        6      -0.00834405      -0.02091896      -0.01910206 
N      -2.30163586      -1.65453639       0.58019707        7      -0.00869686      -0.00046018       0.01322087 
O      -3.42661223      -0.24139566      -1.38408529        8      -0.02789025      -0.00488618      -0.01298777 
H      -0.77770237      -0.82081409      -0.66617687        1       0.02918501       0.01359769       0.01548452 
H      -1.64300309       0.54816571       1.90634267        1       0.00977282      -0.02678761      -0.00920599 
H      -0.42812219       1.14899839       0.78127088        1       0.00468326      -0.04474640       0.02017056 
O      -2.28210080       1.59251884      -0.83897456        8      -0.02938144       0.01539371       0.01301138 
H       1.67647416      -0.14513754       0.40938228        1      -0.00148630       0.01452591       0.01318200 
H       3.40705453      -1.54930602       1.45002484        1       0.00608626      -0.01288308       0.00920810 
H       2.90460667      -2.81443027       3.52096369        1      -0.03385140       0.01240377      -0.01949699 
H       0.64755435      -2.67336902       4.51893592        1      -0.01399390       0.02203281       0.00319742 
H      -1.08887578      -1.26253525       3.46942974        1       0.00838900       0.02178336      -0.00339509 
H      -2.82532430      -2.12031140      -0.14929432        1       0.02106803       0.00579912      -0.00126293 
H      -1.66201494      -2.32419742       0.99093593        1      -0.03241652       0.00267040       0.00309499 
H      -3.92220867       0.41500041      -1.89117545        1       0.01458047      -0.02270809       0.01427096 
