27
Properties=species:S:1:pos:R:3:Z:I:1:forces:R:3 magmom=0 energy=-18675.8904295 dipole="-0.5795871 0.561134 -0.1993004" pbc="F F F"
C       2.58331643      -0.51772328      -0.12130530        6      -0.00929372       0.00200685      -0.02288349 
C       1.14372933      -0.18638268       0.34498513        6       0.00440759      -0.01267667       0.00401596 
C       1.00502113       1.08940252       1.12005439        6       0.00711260       0.00112290      -0.01247330 
C       0.33308177       1.21525382       2.38545608        6       0.01940072      -0.01498876      -0.00005045 
C       0.41388565       2.56732710       2.77666655        6       0.00239257      -0.00483121       0.00234968 
C       1.45557863       2.34005636       0.80430984        6      -0.01091901       0.00710684       0.01412636 
N       1.10230025       3.22943235       1.79327148        7      -0.01321789       0.01007446       0.00161573 
C      -0.32617491       0.30615849       3.22137815        6       0.00270439       0.00162422      -0.00348621 
C      -0.13312007       3.02895551       3.97308351        6       0.00503905       0.00333122      -0.00505068 
C       3.00165244       0.46429947      -1.18906336        6       0.01717836       0.01701083      -0.01016357 
C      -0.87285411       0.75760697       4.40388223        6       0.00088312       0.00423846      -0.01084116 
C      -0.77369074       2.10852802       4.77659888        6       0.00341160       0.01241622       0.00164725 
N       3.59349310      -0.54550901       0.91335397        7      -0.01915004      -0.00438898      -0.03577433 
O       2.28020645       0.31400336      -2.31455083        8       0.03035928      -0.01480051      -0.00511470 
H       2.54232461      -1.49390016      -0.60994159        1      -0.02405905      -0.01790830       0.00292828 
H       0.82976983      -1.01260071       0.98474327        1      -0.01797839      -0.01163728       0.00843502 
H       0.48294873      -0.20300556      -0.52476635        1       0.00985710       0.01923751       0.01142094 
O       3.83890076       1.31337306      -1.06794156        8       0.01869521       0.01358077      -0.00256514 
H       2.02471772       2.68086504      -0.04451748        1      -0.02403406      -0.00119849       0.00562532 
H       1.31388862       4.21035048       1.78928109        1       0.02124950      -0.00800549       0.00606662 
H      -0.40599600      -0.73645266       2.94280110        1      -0.01871758      -0.01850721       0.01023474 
H      -1.38779780       0.06528438       5.05547895        1       0.01375144       0.00218513       0.01391167 
H      -1.20378502       2.43395140       5.71366836        1      -0.01865742      -0.00645033      -0.00205328 
H      -0.05834258       4.06823457       4.26497245        1       0.00297811      -0.00097188      -0.01476903 
H       3.85976868       0.39924738       1.16326203        1       0.00137940       0.01482257       0.01091660 
H       3.23414258      -1.00011729       1.74242175        1       0.00464568       0.01147823       0.03175601 
H       2.58412605       0.97982748      -2.94427877        1      -0.00941857      -0.00387105       0.00017504 
