27
Properties=species:S:1:pos:R:3:Z:I:1:forces:R:3 magmom=0 energy=-18675.8889165 dipole="-0.3773467 0.4536552 0.0556756" pbc="F F F"
C       2.56887705      -0.54734247      -0.18336145        6       0.01121042       0.01602224      -0.01808987 
C       1.18072327      -0.27045408       0.44824233        6       0.02793967       0.00001753      -0.00157917 
C       1.15012220       0.79566693       1.50243589        6       0.00677223      -0.01966992       0.01440949 
C       0.35818680       0.72009106       2.70003437        6      -0.01648016       0.01322190       0.00799737 
C       0.61850973       1.88188400       3.45477337        6       0.00937255       0.00935861       0.01602250 
C       1.83804834       1.97395692       1.57660373        6      -0.00039189      -0.01842448      -0.01270516 
N       1.51741697       2.63197246       2.74261849        7       0.00317110      -0.01230206      -0.01014748 
C      -0.54030654      -0.22767036       3.20370447        6       0.00482524      -0.00670081       0.00211355 
C       0.02885860       2.11095615       4.69627711        6      -0.00320442      -0.01096421       0.01786181 
C       2.93865220       0.58333288      -1.11748976        6      -0.00453877      -0.00257331      -0.01824645 
C      -1.12659852      -0.00656085       4.43165121        6       0.00267184      -0.01579367       0.00171210 
C      -0.83851911       1.15070262       5.17348572        6       0.00013910      -0.02025927       0.02034997 
N       3.66358206      -0.75655062       0.74023941        7      -0.01109673       0.00700693      -0.00144954 
O       2.22412875       0.54165340      -2.25302796        8      -0.01239858      -0.00458417      -0.02338388 
H       2.45632995      -1.43534748      -0.80884049        1      -0.00489805       0.01586983      -0.00798605 
H       0.86263540      -1.20945018       0.90782578        1      -0.01336814       0.02098941       0.00031578 
H       0.46570868      -0.06621177      -0.35381114        1       0.01051679      -0.00076686       0.02462202 
O       3.74177933       1.44526159      -0.89142749        8       0.01216919      -0.02208717       0.02038859 
H       2.55223559       2.40095141       0.89328186        1       0.00639624       0.00702857      -0.00379911 
H       1.92764403       3.49452357       3.05024502        1      -0.00867223       0.01022070      -0.02467210 
H      -0.77270567      -1.12117190       2.63888091        1      -0.00237961      -0.01674904      -0.00177195 
H      -1.81643946      -0.73473870       4.83495725        1      -0.00504661      -0.00169888       0.00957160 
H      -1.29816684       1.28463971       6.14257396        1      -0.03838971       0.02841054      -0.00150528 
H       0.24630763       3.00084952       5.27171263        1       0.01718813       0.01466017      -0.01401483 
H       3.94012970       0.13004967       1.14478873        1       0.03872704      -0.01912052       0.01378939 
H       3.37882797      -1.36437272       1.49813893        1      -0.01868153       0.01618864      -0.00725478 
H       2.48513311       1.30140079      -2.78869034        1      -0.01155315       0.01269925      -0.00254868 
