27
Properties=species:S:1:pos:R:3:Z:I:1:forces:R:3 magmom=0 energy=-18675.8339114 dipole="-0.5476317 -1.034898 -0.3569587" pbc="F F F"
C       2.44521088      -0.58670495      -0.18556272        6       0.01974895      -0.02187001       0.01774596 
C       1.26473831      -0.31490484       0.75644987        6       0.00033003       0.01528022      -0.00665530 
C      -0.05171847      -0.31073909       0.03949208        6      -0.00362310      -0.01609331       0.00722809 
C      -1.14462745       0.60713240       0.22094429        6      -0.01360556      -0.01435982      -0.01774509 
C      -2.16396647       0.22518032      -0.67665468        6      -0.02254446      -0.02742308      -0.00725313 
C      -0.44473841      -1.18301295      -0.93332046        6       0.00763253      -0.01649466       0.01590377 
N      -1.71153471      -0.87200274      -1.36487208        7      -0.00098777      -0.02240053      -0.02007538 
C      -1.36229560       1.71007998       1.05571358        6       0.03574708       0.01628537      -0.02159465 
C      -3.37608214       0.90660235      -0.76781590        6       0.01355434       0.01138335       0.00261502 
C       2.50287123       0.51724744      -1.22646584        6      -0.00037111       0.00794373       0.01171662 
C      -2.56092744       2.38658184       0.97315583        6      -0.00409099      -0.01995680       0.01238274 
C      -3.55799230       1.98905553       0.06701342        6      -0.00587955       0.01278059      -0.00378225 
N       3.75420265      -0.61942482       0.45293895        7       0.00734153      -0.00594218       0.01418354 
O       2.41810876       0.06457847      -2.48509940        8       0.01208825       0.01251829      -0.01367940 
H       2.30442598      -1.53449335      -0.70303546        1      -0.00131008      -0.01502625      -0.00197368 
H       1.43606633       0.65679704       1.22386574        1      -0.02938555       0.01374193       0.00691406 
H       1.28298591      -1.06468314       1.55291151        1       0.00372903       0.02114573      -0.01707660 
O       2.62948154       1.67719524      -0.95267189        8       0.01837691      -0.02152255      -0.00013359 
H       0.08350947      -2.01988987      -1.35988464        1      -0.01054826       0.01990430      -0.03199676 
H      -2.20848273      -1.35640779      -2.08965107        1      -0.01649245       0.02450889       0.01109333 
H      -0.59869259       2.03558326       1.74907779        1       0.02040659      -0.02123181       0.03239960 
H      -2.74408221       3.23585311       1.61710793        1       0.01907244       0.01121829      -0.01656737 
H      -4.48174065       2.54857083       0.02045667        1      -0.02346456      -0.01423990       0.00494531 
H      -4.14119267       0.59854706      -1.46840239        1      -0.00190015       0.01478791       0.00634358 
H       3.92012257       0.24512599       0.95528710        1      -0.00816577       0.02148039      -0.01875928 
H       3.80679379      -1.38254613       1.11510753        1      -0.00055855       0.01912150       0.01350858 
H       2.48664563       0.82861613      -3.07366764        1      -0.01509968      -0.00553955       0.02031228 
