27
Properties=species:S:1:pos:R:3:Z:I:1:forces:R:3 magmom=0 energy=-18675.8891125 dipole="-0.4204272 0.450907 0.1379912" pbc="F F F"
C       2.52730142      -0.47663110      -0.24189757        6       0.01570800       0.00216189      -0.02413958 
C       1.19524087      -0.29236382       0.51903890        6       0.00945055      -0.00949858      -0.01147370 
C       1.22554919       0.60460810       1.71951744        6       0.02078495      -0.02057803       0.01216204 
C       0.37082502       0.43876703       2.86470965        6      -0.02263836       0.00024549      -0.01325846 
C       0.64720010       1.49404564       3.75737488        6      -0.01335287       0.00032427      -0.01101610 
C       1.97454661       1.72048836       1.96308256        6      -0.01716170       0.00698265       0.00442261 
N       1.63328190       2.25583888       3.18519053        7      -0.02418827       0.01007960       0.00073585 
C      -0.60601759      -0.50370256       3.20648185        6      -0.00141771       0.00901079       0.00720346 
C      -0.03074485       1.63929360       4.96660369        6       0.01674585       0.00278049       0.01145802 
C       2.94408915       0.82088785      -0.89847391        6       0.02230874      -0.00792589      -0.03676704 
C      -1.27326490      -0.37060165       4.40684411        6       0.02324874      -0.00467236       0.01050003 
C      -0.98830578       0.69524297       5.27766365        6      -0.01566013       0.02808072      -0.02309319 
N       3.64182144      -0.98754650       0.52566185        7      -0.00388895       0.01662306       0.02085067 
O       2.13633532       1.13967491      -1.92327656        8      -0.01368285      -0.00565977      -0.01342039 
H       2.32253768      -1.16987215      -1.06029178        1      -0.00924368      -0.00766945      -0.00730816 
H       0.88969360      -1.28963532       0.84429178        1      -0.01451439      -0.00795885       0.00155891 
H       0.43358618       0.04286169      -0.19001031        1      -0.00109359       0.00274085      -0.00569669 
O       3.86309069       1.51261695      -0.56062668        8       0.00948768       0.00624475       0.00732698 
H       2.73628063       2.18953982       1.36374982        1       0.00797150      -0.00873635       0.01883662 
H       2.03387860       3.08647669       3.58042717        1       0.00944598      -0.00837259       0.01055114 
H      -0.83585154      -1.32175849       2.53490012        1      -0.02006494       0.00231214       0.02461446 
H      -2.02625225      -1.09455320       4.68803428        1       0.00417856       0.01773850      -0.01467138 
H      -1.53624631       0.78464822       6.20622363        1       0.01627082      -0.02393862      -0.01112182 
H       0.18104541       2.46336426       5.63579120        1       0.01243416      -0.01962950      -0.00239185 
H       3.96595864      -0.29085949       1.18568624        1       0.00832996       0.00369514      -0.00731314 
H       3.35997695      -1.80640961       1.04806833        1      -0.00257429       0.00294427       0.03896888 
H       2.44742733       1.97748950      -2.28870796        1      -0.01688377       0.01267539       0.01248178 
