27
Properties=species:S:1:pos:R:3:Z:I:1:forces:R:3 magmom=0 energy=-18675.9113142 dipole="-0.5903862 -0.9413838 -0.276011" pbc="F F F"
C       2.56124085      -0.60925009      -0.12412533        6       0.01391692      -0.00388077      -0.02331081 
C       1.09154689      -0.28527167      -0.47106747        6      -0.01018836      -0.00573238      -0.00832148 
C       0.12724611      -1.24500609       0.15212122        6       0.00737140      -0.00353069       0.00541315 
C      -1.21773116      -0.94449240       0.56081642        6       0.00129676      -0.00465987      -0.00066550 
C      -1.76998591      -2.12860842       1.09127831        6      -0.01202994      -0.00338136      -0.00767947 
C       0.33065092      -2.56104130       0.44744723        6       0.00170984      -0.00453224      -0.00203138 
N      -0.80488838      -3.09939622       1.00783516        7      -0.02122348      -0.01156338       0.00368398 
C      -1.99996055       0.21617616       0.53016866        6       0.00001903      -0.00275031      -0.00136608 
C      -3.07099138      -2.18567861       1.58824398        6       0.00177072      -0.00055932       0.00700312 
C       3.41341808       0.44507847      -0.79035323        6       0.00819771      -0.00302506       0.01123783 
C      -3.28585264       0.16553519       1.02529801        6      -0.00575706       0.00575110      -0.00282852 
C      -3.81595781      -1.02585550       1.54885646        6       0.00263656       0.00375021       0.00220740 
N       2.88064238      -0.63896901       1.28780612        7      -0.00152040       0.00553631       0.00091902 
O       3.59221387       0.19959566      -2.09830717        8      -0.00594455      -0.01588042      -0.02247844 
H       2.81869398      -1.56885041      -0.57804076        1      -0.00920270      -0.01821472      -0.00784942 
H       0.97977856      -0.28058153      -1.55872205        1      -0.01508554       0.01668389       0.00258864 
H       0.86859165       0.72633697      -0.12186361        1       0.01199708       0.01288154       0.02720814 
O       3.84232260       1.42264735      -0.24698579        8       0.01461251       0.01535036       0.02101764 
H       1.20869944      -3.16995463       0.30901606        1       0.01544853      -0.01154688       0.00023274 
H      -0.90137872      -4.04575916       1.32579886        1       0.00248744      -0.01489548       0.00160231 
H      -1.60361593       1.13770147       0.12247169        1       0.00012712      -0.01189259       0.01002170 
H      -3.90192976       1.05364327       1.01427579        1      -0.00024852       0.00935984      -0.01120873 
H      -4.82767462      -1.03302633       1.93036240        1      -0.00227836       0.00256370      -0.00475315 
H      -3.48024929      -3.10195572       1.99270157        1       0.00396449      -0.00011740       0.00003697 
H       2.99037586       0.30539347       1.63760429        1       0.01930184       0.03084815      -0.01424227 
H       2.13865049      -1.08949912       1.80697291        1      -0.02243797       0.00886861       0.01226247 
H       4.09337681       0.93783801      -2.46797750        1       0.00105893       0.00456926       0.00130016 
