27
Properties=species:S:1:pos:R:3:Z:I:1:forces:R:3 magmom=0 energy=-18675.9412712 dipole="-0.1201917 -0.4101693 -0.1150027" pbc="F F F"
C       2.41601216      -0.47219665      -0.23887352        6       0.00471366      -0.01991705      -0.00160499 
C       1.00036264       0.02706973       0.05330055        6      -0.00344641      -0.01110511       0.00428078 
C       0.06492474      -1.04676475       0.51080339        6      -0.00238254      -0.01666836      -0.00782721 
C      -1.34762022      -0.86938385       0.70773382        6      -0.00411788      -0.01292262       0.00819292 
C      -1.87819628      -2.12166186       1.07945300        6      -0.01556613       0.00552422       0.04017673 
C       0.32943960      -2.35779176       0.77508740        6       0.00003605      -0.00758008       0.00063558 
N      -0.83571639      -3.01324611       1.10524237        7      -0.00796595       0.02517146       0.01021505 
C      -2.20410444       0.23253388       0.61485314        6      -0.00299426      -0.00203909       0.00798245 
C      -3.23078032      -2.30126680       1.35770799        6      -0.01809249       0.00144254       0.00520751 
C       3.25246612       0.62626112      -0.87743187        6       0.01509448       0.00773203       0.01258221 
C      -3.54430355       0.06086471       0.89571317        6       0.00339797       0.00426160       0.00073822 
C      -4.05231020      -1.19562826       1.26363717        6      -0.00182060       0.00409016      -0.00457271 
N       3.04677714      -1.03485499       0.93947330        7       0.01310461       0.01921833      -0.01079282 
O       2.67026353       1.12441504      -1.98196048        8       0.02274403      -0.01580596      -0.00020661 
H       2.33931361      -1.24906386      -1.00944751        1      -0.02477320      -0.00610164      -0.01503021 
H       0.59919814       0.48401403      -0.85226565        1       0.00578287       0.01192617      -0.00426459 
H       1.05662098       0.82744621       0.80128926        1       0.01427569      -0.01027079       0.00077334 
O       4.32595335       0.99329605      -0.48950199        8      -0.03529950      -0.01245756       0.00463225 
H       1.27446440      -2.87311040       0.77306867        1       0.01359075      -0.00219670      -0.01665319 
H      -0.89785183      -3.97127379       1.39669887        1       0.01039590      -0.00574174      -0.02256884 
H      -1.81964603       1.20628228       0.33808539        1      -0.00403843      -0.00677558      -0.01470872 
H      -4.21758398       0.90463358       0.83644736        1      -0.00625832       0.00287758      -0.00663612 
H      -5.10736110      -1.29578061       1.47985904        1       0.00949400      -0.01426057      -0.00894209 
H      -3.62151601      -3.27020181       1.63931497        1      -0.01306876       0.00828656       0.01129198 
H       4.05095692      -0.91157706       0.89213211        1       0.01299636       0.00295831      -0.02183006 
H       2.73057352      -0.55060883       1.77013501        1      -0.00016239       0.01978222       0.02750690 
H       3.27563443       1.77136823      -2.36449241        1       0.01436049       0.03057155       0.00142223 
