27
Properties=species:S:1:pos:R:3:Z:I:1:forces:R:3 magmom=0 energy=-18675.8476151 dipole="-0.4399333 -0.1198234 0.2834119" pbc="F F F"
C       2.53153365      -0.69381973       0.00113500        6      -0.02447279       0.01477263      -0.01044578 
C       1.28227250      -0.29762136       0.80057683        6      -0.03459276      -0.00213057       0.00675460 
C       0.00965341      -0.29654886       0.01224048        6      -0.01693318       0.03227779      -0.02255665 
C      -1.10382503       0.58328914       0.23774968        6      -0.02899572      -0.00469129      -0.00054466 
C      -2.08879828       0.27244624      -0.72076528        6      -0.00099656       0.01254971      -0.01646792 
C      -0.33239608      -1.08057764      -1.05107074        6      -0.00781132       0.02515850      -0.00296572 
N      -1.59510417      -0.75114527      -1.48952370        7       0.00018327       0.00322216       0.02223053 
C      -1.34810770       1.61422822       1.15035146        6       0.01653430       0.03478142      -0.00248250 
C      -3.29976125       0.95932101      -0.79089677        6      -0.02886423      -0.02892882       0.00526737 
C       2.65245994       0.20438612      -1.21566960        6       0.00865948      -0.02141359       0.00165471 
C      -2.53873592       2.30643113       1.07735058        6      -0.02068905      -0.02322683       0.02090677 
C      -3.50914672       1.97772740       0.11650901        6       0.00306141      -0.01734579       0.00584016 
N       3.77470489      -0.61461477       0.75868719        7       0.00726450       0.01615244      -0.02554489 
O       2.88232670       1.48047040      -0.85309131        8       0.01478462       0.01088960       0.01624305 
H       2.42707915      -1.70772116      -0.38328547        1       0.01536563       0.00066247      -0.01805876 
H       1.45426143       0.70439953       1.20168556        1      -0.01851338      -0.01579943       0.02369837 
H       1.20791112      -0.97343159       1.65686572        1       0.01732188      -0.00096982       0.03134185 
O       2.54272213      -0.13612130      -2.35714977        8       0.01552288      -0.04148583      -0.00882793 
H       0.24026053      -1.83531389      -1.56528317        1      -0.01054769       0.00912299       0.01114697 
H      -2.06627404      -1.16629137      -2.27181222        1       0.03491661      -0.01575094      -0.02435812 
H      -0.60952079       1.86822661       1.89870807        1       0.01229748       0.02511104       0.02524849 
H      -2.73530002       3.11152357       1.77141979        1      -0.00576205       0.00023330       0.01513958 
H      -4.43919672       2.53009565       0.09139574        1       0.02788830      -0.00635638      -0.01350688 
H      -4.05091563       0.70191774      -1.52609097        1       0.01353475       0.00860255      -0.01221295 
H       3.89974389       0.32445108       1.11765062        1       0.02092883       0.01603052       0.00791494 
H       3.74937952      -1.24352907       1.55176523        1      -0.01978243      -0.01003589      -0.03165974 
H       2.92885219       2.01277908      -1.65722449        1       0.00969717      -0.02143200      -0.00375474 
