27
Properties=species:S:1:pos:R:3:Z:I:1:forces:R:3 magmom=0 energy=-18675.94061 dipole="-0.3224064 -0.0761919 1.1573254" pbc="F F F"
C       2.13832411      -0.57327666      -0.05995238        6       0.01296237       0.00641357      -0.01607202 
C       1.60388181       0.37190206       1.04872112        6       0.00619677      -0.00212697       0.02282523 
C       1.06009807      -0.40822858       2.19772250        6      -0.03921066       0.00137081      -0.00751950 
C      -0.25156300      -0.99401828       2.22443231        6      -0.01967105       0.01702672      -0.00757781 
C      -0.38169429      -1.69150229       3.44072265        6       0.02524901      -0.00415444      -0.02049936 
C       1.66112410      -0.76666780       3.36833843        6      -0.02611249       0.03086147       0.00557770 
N       0.80274185      -1.54173007       4.12010460        7      -0.00907008       0.02236808      -0.01125089 
C      -1.32496758      -0.96595960       1.32891173        6       0.00755606      -0.02880860      -0.02728038 
C      -1.55140118      -2.36930718       3.78060787        6       0.02833479       0.01381212       0.01977225 
C       2.35898920       0.25481284      -1.30239446        6       0.02664656       0.03783235       0.00658912 
C      -2.48479901      -1.63106820       1.66308645        6      -0.02563159      -0.00511038       0.00972448 
C      -2.59439683      -2.32665529       2.87847769        6       0.01081817      -0.00759823       0.01178110 
N       3.38275689      -1.23928398       0.26595526        7       0.01208583      -0.00661637       0.00487029 
O       1.29554121       0.24216685      -2.12206354        8      -0.01036376       0.00398788       0.00597365 
H       1.37483429      -1.32107863      -0.27500147        1      -0.01146506      -0.00267672      -0.00451316 
H       0.81347657       1.00766626       0.63871838        1       0.01017478      -0.01636831       0.01475289 
H       2.42284921       1.02458076       1.35665234        1       0.00062663       0.00154163      -0.00843780 
O       3.34473740       0.90132254      -1.52175157        8       0.01009497      -0.04775958      -0.00622762 
H       2.63764156      -0.50996883       3.74514912        1       0.01860584      -0.00823576      -0.00692357 
H       0.99336153      -1.90083736       5.03722564        1       0.03366212       0.00260566      -0.00318755 
H      -1.24216099      -0.43207721       0.39004816        1      -0.00955155      -0.00263852      -0.00767120 
H      -3.32543192      -1.61975601       0.98472839        1      -0.02429734      -0.00317773      -0.01877337 
H      -3.51636830      -2.83900676       3.11395869        1      -0.01992600      -0.01041353      -0.00569998 
H      -1.64291728      -2.90758667       4.71414266        1       0.00555055      -0.00188745       0.01880217 
H       4.13877774      -0.56346534       0.26816969        1       0.00643038      -0.00417496      -0.00733505 
H       3.32173848      -1.65889074       1.18520881        1      -0.01809923      -0.02079148       0.01991181 
H       1.49941899       0.81139157      -2.87555858        1      -0.00159614       0.03471884       0.01838858 
