27
Properties=species:S:1:pos:R:3:Z:I:1:forces:R:3 magmom=0 energy=-18675.7547617 dipole="-0.5410423 -0.7384732 0.5613015" pbc="F F F"
C       2.47348755      -0.51544145      -0.26973291        6      -0.01325106       0.01537947      -0.00212301 
C       1.15994264      -0.11817631       0.43737800        6      -0.00306846       0.01282986       0.01647995 
C       0.46931766      -1.17197327       1.25063439        6      -0.02327574      -0.00393261       0.00345664 
C      -0.96437782      -1.24253663       1.37987702        6      -0.00917447       0.00980269      -0.00576313 
C      -1.26497865      -2.30097757       2.25984286        6      -0.00371087       0.02429811       0.00716181 
C       0.96176229      -2.16273652       2.05171775        6      -0.01528274       0.01148733       0.03153690 
N      -0.07178726      -2.84695715       2.65228964        7      -0.01350086      -0.01637273      -0.02025783 
C      -2.01561115      -0.48727165       0.84672079        6      -0.01466167       0.00162067      -0.00312291 
C      -2.57276235      -2.63631028       2.60713302        6       0.00251557       0.00614381      -0.01337663 
C       2.89152907       0.70945214      -1.05944037        6       0.01096632      -0.04622988      -0.01487224 
C      -3.31076267      -0.80444779       1.19668095        6      -0.00930292      -0.01767052      -0.01839928 
C      -3.58681899      -1.87335473       2.06626198        6       0.00372507       0.00128853       0.00321696 
N       3.59245441      -0.88496761       0.57222436        7       0.01073708      -0.00473350      -0.02452442 
O       2.27369665       0.79562344      -2.24892000        8      -0.03763684       0.00003605       0.01594557 
H       2.26804274      -1.32821954      -0.96697365        1      -0.00661149      -0.00589446      -0.00067121 
H       0.46054276       0.21427930      -0.33291384        1      -0.00614103       0.01897464      -0.00729859 
H       1.36985411       0.75699547       1.05995214        1       0.01663242       0.01510420       0.04023509 
O       3.63794393       1.55304515      -0.65282941        8       0.01643233       0.01161398       0.01532959 
H       1.96937082      -2.44905176       2.29123272        1       0.03597688       0.00324895      -0.01326103 
H       0.03839698      -3.60199738       3.30323335        1       0.00530064      -0.02951112      -0.01049134 
H      -1.82082660       0.33950279       0.17604478        1       0.01944340       0.00043755      -0.00023546 
H      -4.13067873      -0.22370695       0.79701607        1       0.00043976      -0.01257866       0.00066319 
H      -4.61477701      -2.09727309       2.31663570        1       0.00524274      -0.01424833       0.00484144 
H      -2.78276871      -3.46100865       3.27556987        1      -0.00589359       0.01544246       0.00565041 
H       3.87639047      -0.10519258       1.15157784        1       0.02046809       0.03683414       0.01069070 
H       3.37385639      -1.67397553       1.15836878        1       0.00224941      -0.00334542      -0.00830785 
H       2.53120872       1.63789397      -2.64658322        1       0.01138197      -0.03002519      -0.01250343 
