27
Properties=species:S:1:pos:R:3:Z:I:1:forces:R:3 magmom=0 energy=-18675.8048061 dipole="0.3270104 0.5737947 0.7538459" pbc="F F F"
C       2.60593083      -0.63821480      -0.17371584        6      -0.00894595      -0.01376142       0.01197389 
C       1.22596012      -0.30709693       0.43231924        6      -0.01869907       0.01603602       0.00898822 
C       1.23560969       0.69968242       1.54107481        6      -0.03571612       0.01826527       0.00302516 
C       0.42275702       0.60414761       2.72194825        6       0.01399668      -0.01922995       0.01800862 
C       0.69374674       1.73473783       3.51920537        6      -0.00270614      -0.01245617      -0.00123639 
C       1.94284138       1.86074492       1.66245322        6       0.00880659       0.00128745      -0.00370105 
N       1.62440215       2.48590892       2.84874802        7      -0.00603279      -0.02166952      -0.00632378 
C      -0.50744161      -0.34034374       3.17107867        6      -0.01440337       0.00852758       0.00586443 
C       0.07739827       1.93767200       4.75288017        6      -0.02568270       0.00332279      -0.00926934 
C       3.05651200       0.50948040      -1.05814131        6      -0.01765088      -0.00031877       0.03835325 
C      -1.12924948      -0.13703051       4.38375621        6      -0.00584720      -0.01339267       0.01044927 
C      -0.83926965       0.99319500       5.16622689        6       0.01564285      -0.02680889       0.02501447 
N       3.63349520      -1.04401671       0.76374860        7       0.03193357       0.00402876       0.00390201 
O       4.20998804       1.08038707      -0.67478084        8       0.00086081      -0.00886614      -0.01628887 
H       2.44386808      -1.45975582      -0.87449263        1       0.01786876      -0.00323265      -0.01911986 
H       0.82050271      -1.24047108       0.82824620        1       0.00907651      -0.00758897      -0.01222431 
H       0.55949863       0.00548936      -0.37395283        1       0.00123341       0.00559596      -0.02915842 
O       2.43317874       0.89325971      -2.00805314        8       0.00798461       0.00161470      -0.01425939 
H       2.66495546       2.30721078       1.00013640        1       0.01428572      -0.00436465      -0.03625117 
H       1.98771110       3.37052290       3.15297598        1       0.02494243      -0.02401323       0.00139436 
H      -0.74368220      -1.21305834       2.57494840        1       0.02243750       0.00868601       0.00646936 
H      -1.84699819      -0.86057963       4.74437807        1      -0.01940910       0.01374553       0.01120657 
H      -1.34230714       1.11832032       6.11482309        1       0.00783698       0.01799613       0.01991345 
H       0.30990747       2.79754801       5.36668755        1      -0.01991299       0.02907615      -0.01813852 
H       3.83538192      -0.29650462       1.41689972        1       0.00640925       0.01801161      -0.00168006 
H       3.31033587      -1.83274519       1.30885962        1      -0.01951036      -0.02736235      -0.00292916 
H       4.40865026       1.76652282      -1.32483131        1       0.01120091       0.03687137       0.00601726 
