27
Properties=species:S:1:pos:R:3:Z:I:1:forces:R:3 magmom=0 energy=-18675.8889165 dipole="-0.3773466 0.4536553 0.0556756" pbc="F F F"
C       2.56887707      -0.54734250      -0.18336139        6       0.01120986       0.01602224      -0.01809018 
C       1.18072325      -0.27045412       0.44824229        6       0.02793915       0.00001748      -0.00157886 
C       1.15012211       0.79566687       1.50243584        6       0.00677290      -0.01966915       0.01440965 
C       0.35818675       0.72009105       2.70003434        6      -0.01647980       0.01322169       0.00799752 
C       0.61850977       1.88188398       3.45477333        6       0.00937188       0.00935902       0.01602291 
C       1.83804832       1.97395681       1.57660369        6      -0.00039163      -0.01842298      -0.01270459 
N       1.51741703       2.63197242       2.74261845        7       0.00316950      -0.01230484      -0.01014784 
C      -0.54030655      -0.22767040       3.20370447        6       0.00482462      -0.00670024       0.00211355 
C       0.02885859       2.11095616       4.69627704        6      -0.00320426      -0.01096421       0.01786171 
C       2.93865221       0.58333285      -1.11748970        6      -0.00454005      -0.00257455      -0.01824604 
C      -1.12659852      -0.00656086       4.43165121        6       0.00267179      -0.01579388       0.00171205 
C      -0.83851914       1.15070265       5.17348567        6       0.00013966      -0.02025916       0.02035095 
N       3.66358200      -0.75655063       0.74023955        7      -0.01109652       0.00700651      -0.00144913 
O       2.22412856       0.54165347      -2.25302776        8      -0.01239822      -0.00458299      -0.02338568 
H       2.45632999      -1.43534749      -0.80884045        1      -0.00489795       0.01586962      -0.00798605 
H       0.86263534      -1.20945019       0.90782574        1      -0.01336814       0.02098874       0.00031599 
H       0.46570869      -0.06621185      -0.35381120        1       0.01051674      -0.00076665       0.02462171 
O       3.74177939       1.44526151      -0.89142755        8       0.01217078      -0.02208603       0.02038931 
H       2.55223556       2.40095133       0.89328185        1       0.00639665       0.00702842      -0.00379978 
H       1.92764405       3.49452350       3.05024502        1      -0.00867141       0.01022188      -0.02467210 
H      -0.77270573      -1.12117188       2.63888087        1      -0.00237950      -0.01674935      -0.00177185 
H      -1.81643942      -0.73473872       4.83495730        1      -0.00504666      -0.00169888       0.00957150 
H      -1.29816675       1.28463973       6.14257399        1      -0.03838986       0.02841049      -0.00150600 
H       0.24630758       3.00084955       5.27171256        1       0.01718829       0.01465997      -0.01401498 
H       3.94012969       0.13004974       1.14478865        1       0.03872740      -0.01912047       0.01378991 
H       3.37882785      -1.36437254       1.49813922        1      -0.01868143       0.01618931      -0.00725560 
H       2.48513301       1.30140084      -2.78869017        1      -0.01155382       0.01269811      -0.00254807 
