27
Properties=species:S:1:pos:R:3:Z:I:1:forces:R:3 magmom=0 energy=-18675.827563 dipole="0.222563 0.5979753 0.3231307" pbc="F F F"
C       2.58327392      -0.57384649      -0.09350181        6      -0.01013215      -0.01738025      -0.01089767 
C       1.12908472      -0.24760625       0.29895601        6      -0.00359008       0.01682761      -0.01328109 
C       0.98995748       1.03564564       1.06335924        6      -0.01415953       0.01633669      -0.00697880 
C       0.36781035       1.19712789       2.35089927        6       0.01733659       0.00229358       0.00453414 
C       0.47130195       2.56025843       2.70280418        6       0.00333128      -0.00328109       0.01175570 
C       1.42495897       2.27767153       0.69456834        6      -0.00656146       0.01627411       0.01772143 
N       1.12096327       3.19412915       1.67535612        7      -0.01265734       0.00315382       0.01891360 
C      -0.28012157       0.32114024       3.23221722        6       0.01229296       0.00771346       0.00206166 
C      -0.03495218       3.06299080       3.90145689        6      -0.00119484       0.01022924      -0.00551579 
C       3.04572783       0.39627852      -1.17128383        6      -0.00555929      -0.00279993       0.01469360 
C      -0.77794930       0.81293106       4.42058729        6       0.02246666      -0.00396984       0.00454319 
C      -0.65384810       2.17243497       4.75385045        6       0.02928636      -0.00413562      -0.00564002 
N       3.53586580      -0.66521144       0.99528995        7      -0.01939198       0.02022471       0.00098226 
O       4.32956323       0.75979338      -1.07043194        8      -0.00102104      -0.00335817       0.01231682 
H       2.57286772      -1.54267115      -0.60243391        1       0.00558850      -0.02336135      -0.02018470 
H       0.76668161      -1.07387238       0.91376652        1      -0.00239257       0.03746437       0.00838272 
H       0.52050430      -0.23169930      -0.60610980        1       0.00090194       0.00202480      -0.00261106 
O       2.33219789       0.79991154      -2.05017579        8       0.00381747      -0.02129249       0.00241889 
H       1.91162896       2.59924873      -0.21127777        1      -0.00536996      -0.01690115       0.00338095 
H       1.36593324       4.16710498       1.65197826        1      -0.03056924      -0.00664013      -0.00855473 
H      -0.40028913      -0.72566035       2.98309134        1       0.03115792       0.00209792       0.00443505 
H      -1.27009750       0.14515336       5.11392644        1      -0.01874124      -0.00713666      -0.01093763 
H      -1.04831658       2.52513432       5.69755399        1      -0.01395348      -0.00027665      -0.03195470 
H       0.04700536       4.11282630       4.15342195        1       0.02468892      -0.02739943      -0.01339180 
H       3.61157155       0.22499814       1.47402628        1      -0.00734338      -0.00618777       0.01970848 
H       3.22130579      -1.34648140       1.67455007        1      -0.00311474       0.00829803      -0.00729905 
H       4.51344430       1.33793154      -1.82274226        1       0.00488381       0.00118224       0.01139852 
