27
Properties=species:S:1:pos:R:3:Z:I:1:forces:R:3 magmom=0 energy=-18675.7193705 dipole="-0.2210468 -0.5382503 1.3391389" pbc="F F F"
C       2.58408241      -0.55890327      -0.17776733        6      -0.00897408      -0.01671685       0.01714669 
C       1.21446660      -0.14715041       0.37654785        6      -0.00367231       0.00151613       0.02490144 
C       0.45591257      -1.18632465       1.14354797        6      -0.01798836      -0.00396706      -0.00602852 
C      -0.97893296      -1.18156160       1.26052354        6      -0.00645573       0.00527380       0.00117721 
C      -1.34560879      -2.27153809       2.07405599        6       0.00812895      -0.00659997      -0.00966323 
C       0.88739261      -2.24877924       1.88364153        6       0.00556567       0.00065795      -0.00945055 
N      -0.18814715      -2.90793740       2.43873673        7       0.01007415      -0.00119361       0.00264207 
C      -1.98009910      -0.34724192       0.75110693        6      -0.00796425       0.00468717       0.00326911 
C      -2.67446256      -2.56008377       2.37813518        6       0.00065152      -0.00999244      -0.00053412 
C       3.09368656       0.56748470      -1.05785823        6      -0.02112424      -0.00507639       0.02221145 
C      -3.29603783      -0.62118205       1.05687069        6      -0.00766143      -0.01460726      -0.01928677 
C      -3.63900197      -1.72126538       1.86019769        6      -0.01121500      -0.00891222      -0.00043997 
N       3.61700622      -0.84737695       0.80991937        7       0.00413284       0.00818351      -0.00150584 
O       3.32471601       1.67904224      -0.33291721        8       0.04312368      -0.00498501      -0.01276486 
H       2.47684689      -1.42523410      -0.82786364        1      -0.00074557      -0.01148918      -0.00505284 
H       0.59263958       0.17307025      -0.46539427        1       0.01280409       0.00574277       0.01418622 
H       1.36114666       0.74126436       0.99775718        1      -0.01249222       0.02722367       0.00660511 
O       3.26066929       0.51749993      -2.24165499        8      -0.00173981      -0.00435015      -0.01659385 
H       1.88049455      -2.60556847       2.08824876        1       0.02257038       0.00619291      -0.01202983 
H      -0.12506195      -3.70476487       3.04475682        1      -0.00530660      -0.01993541      -0.01592428 
H      -1.73045321       0.50318757       0.13054763        1       0.02252194       0.00757689      -0.00760178 
H      -4.08007974       0.01419175       0.66940720        1      -0.00874833       0.00350339       0.00347731 
H      -4.68086969      -1.91575535       2.07218522        1      -0.01858918      -0.00177339       0.01542492 
H      -2.93883539      -3.41215002       2.99039838        1      -0.00855735       0.01319197       0.01035167 
H       3.53537194      -0.25034606       1.62280451        1       0.00621436       0.00261224      -0.00699402 
H       3.59284228      -1.81118999       1.10250089        1      -0.00292118      -0.00153701       0.02338701 
H       3.67173263       2.35166257      -0.93132530        1       0.00836812       0.02477351      -0.02090970 
