27
Properties=species:S:1:pos:R:3:Z:I:1:forces:R:3 magmom=0 energy=-18675.8489729 dipole="-0.7634037 -0.2807184 -0.6957321" pbc="F F F"
C       2.40446324      -0.47936283      -0.33491341        6      -0.01202896       0.03205009      -0.02357424 
C       1.30172562      -0.09975258       0.66453181        6       0.01650905       0.00462958       0.00723390 
C       0.14888860       0.63385435       0.05106565        6       0.01052887       0.01228242      -0.00114558 
C      -0.67609995       1.59843686       0.72488702        6       0.01707578       0.02215011      -0.01448009 
C      -1.60021166       2.09589875      -0.21628350        6      -0.01175508      -0.00961058       0.00460027 
C      -0.29942173       0.58212882      -1.23644286        6      -0.01100288       0.00892970       0.00236958 
N      -1.35664196       1.44894157      -1.40324562        7       0.00584350       0.00250071       0.03292452 
C      -0.69181785       2.10328940       2.02897739        6      -0.00552525       0.01133188      -0.00756799 
C      -2.53270162       3.07960114       0.10929258        6      -0.03696151      -0.02386076      -0.00373982 
C       2.91395588       0.78960861      -0.99521775        6       0.02309386      -0.00319043      -0.00645110 
C      -1.60421130       3.08491307       2.35170192        6      -0.01700373       0.00833624       0.00813189 
C      -2.51904170       3.56665611       1.40081114        6       0.02494366       0.01214404      -0.02724578 
N       3.57130660      -1.11794936       0.25822820        7      -0.00366778       0.00498892      -0.02214604 
O       2.65557352       0.86309670      -2.30890282        8       0.00538908      -0.01651589      -0.00393353 
H       2.00069151      -1.13659425      -1.10455780        1       0.00351100      -0.00889566      -0.01839275 
H       1.75919131       0.53221789       1.42903719        1       0.01457548       0.03803999       0.00239051 
H       0.97154779      -1.01045520       1.17198799        1      -0.01045359      -0.02961047      -0.03014639 
O       3.50432428       1.64554585      -0.39957022        8       0.01987849       0.00942875       0.01977461 
H       0.06591543       0.00862788      -2.07207820        1      -0.00608796       0.00375021       0.00371406 
H      -1.81634129       1.63620454      -2.27554871        1      -0.01546544      -0.01599005       0.02368048 
H       0.00504332       1.73527617       2.77078482        1       0.01530120       0.00938514      -0.00394454 
H      -1.61669145       3.49781726       3.35006744        1      -0.01827299      -0.00478400       0.03190914 
H      -3.21965008       4.34038731       1.68576566        1      -0.00211458      -0.03061351      -0.01064355 
H      -3.24411030       3.44493100      -0.62009991        1       0.02702924       0.01268053      -0.00023443 
H       4.04943831      -0.45581191       0.85966598        1      -0.02259090      -0.02907460       0.01897762 
H       3.30109914      -1.91832564       0.81445578        1      -0.00950635       0.00037430       0.01578555 
H       3.00899687       1.70670946      -2.62307592        1      -0.00124205      -0.02085674       0.00215376 
