27
Properties=species:S:1:pos:R:3:Z:I:1:forces:R:3 magmom=0 energy=-18675.8889165 dipole="-0.3773465 0.4536551 0.0556756" pbc="F F F"
C       2.56887702      -0.54734247      -0.18336149        6       0.01121088       0.01602214      -0.01808977 
C       1.18072330      -0.27045404       0.44824240        6       0.02793972       0.00001743      -0.00157948 
C       1.15012230       0.79566694       1.50243599        6       0.00677172      -0.01967053       0.01440893 
C       0.35818684       0.72009105       2.70003444        6      -0.01647969       0.01322246       0.00799716 
C       0.61850969       1.88188404       3.45477342        6       0.00937234       0.00935789       0.01602255 
C       1.83804837       1.97395697       1.57660381        6      -0.00039204      -0.01842509      -0.01270536 
N       1.51741688       2.63197251       2.74261850        7       0.00317305      -0.01229815      -0.01014573 
C      -0.54030649      -0.22767038       3.20370453        6       0.00482524      -0.00670174       0.00211288 
C       0.02885854       2.11095617       4.69627715        6      -0.00320478      -0.01096457       0.01786217 
C       2.93865216       0.58333286      -1.11748983        6      -0.00453769      -0.00257208      -0.01824645 
C      -1.12659851      -0.00656088       4.43165123        6       0.00267158      -0.01579275       0.00171287 
C      -0.83851914       1.15070260       5.17348578        6       0.00013951      -0.02025916       0.02034853 
N       3.66358206      -0.75655063       0.74023934        7      -0.01109477       0.00701119      -0.00145262 
O       2.22412892       0.54165326      -2.25302818        8      -0.01239817      -0.00458510      -0.02338192 
H       2.45632991      -1.43534751      -0.80884050        1      -0.00489826       0.01587019      -0.00798585 
H       0.86263542      -1.20945015       0.90782583        1      -0.01336819       0.02098941       0.00031583 
H       0.46570868      -0.06621170      -0.35381103        1       0.01051653      -0.00076675       0.02462207 
O       3.74177919       1.44526166      -0.89142746        8       0.01216770      -0.02208845       0.02038787 
H       2.55223563       2.40095147       0.89328195        1       0.00639613       0.00702852      -0.00379917 
H       1.92764407       3.49452362       3.05024510        1      -0.00867372       0.01021803      -0.02467287 
H      -0.77270557      -1.12117196       2.63888099        1      -0.00237950      -0.01674853      -0.00177180 
H      -1.81643953      -0.73473869       4.83495720        1      -0.00504646      -0.00169909       0.00957175 
H      -1.29816695       1.28463968       6.14257397        1      -0.03838971       0.02841064      -0.00150482 
H       0.24630753       3.00084957       5.27171265        1       0.01718808       0.01466007      -0.01401478 
H       3.94012963       0.13004966       1.14478883        1       0.03872637      -0.01912217       0.01378862 
H       3.37882814      -1.36437289       1.49813865        1      -0.01868287       0.01618602      -0.00725133 
H       2.48513334       1.30140062      -2.78869054        1      -0.01155294       0.01270017      -0.00254925 
