27
Properties=species:S:1:pos:R:3:Z:I:1:forces:R:3 magmom=0 energy=-18675.8546411 dipole="-0.3897856 -0.0873463 0.2457256" pbc="F F F"
C       2.49284873      -0.59030794      -0.22687638        6      -0.01227923       0.00851117      -0.00359682 
C       1.36189834      -0.08833795       0.68568342        6      -0.00225167       0.00162077       0.00229594 
C       0.13927001       0.37677194      -0.04586817        6       0.01467174      -0.01709018      -0.01783590 
C      -0.83312249       1.32302876       0.43325087        6       0.00552669      -0.03014320      -0.01355198 
C      -1.82366336       1.44746398      -0.56311192        6       0.01222765       0.01328211      -0.01398691 
C      -0.28775529      -0.01540546      -1.28076036        6       0.00276594       0.00930194      -0.02036185 
N      -1.47179423       0.61114516      -1.59219621        7       0.00391533       0.01279278      -0.01401436 
C      -0.94722437       2.08568327       1.60059723        6       0.02023026      -0.01207580      -0.01821976 
C      -2.90882156       2.31093878      -0.42906519        6      -0.00025541       0.00243232      -0.00701778 
C       2.94716661       0.52138381      -1.15154418        6      -0.02101265       0.01364963      -0.00048326 
C      -2.01264059       2.95152535       1.73367181        6      -0.01087407      -0.03277586       0.00717672 
C      -2.98387834       3.06333993       0.72495761        6      -0.00017591       0.00014810      -0.00908433 
N       3.66865638      -1.09178487       0.47463741        7      -0.02663560       0.00834812       0.02348693 
O       3.53930826       1.51215925      -0.45735243        8       0.00196592       0.00859695      -0.01362160 
H       2.12295957      -1.38461084      -0.87339169        1      -0.00417275      -0.01016481      -0.01003682 
H       1.75881653       0.72545135       1.29767300        1      -0.01050183       0.00124015       0.01423656 
H       1.11034342      -0.90382851       1.37092577        1       0.00904344       0.01550190       0.01167271 
O       2.80932378       0.55351362      -2.33951742        8      -0.01080074      -0.02910499      -0.00934668 
H       0.17417430      -0.67973975      -1.99235741        1       0.00476359       0.00643655       0.00353069 
H      -1.95392110       0.53045476      -2.46895984        1       0.01190369       0.00104063       0.01817297 
H      -0.20436075       2.00044192       2.38251620        1       0.00784115       0.02024939       0.03007029 
H      -2.10923880       3.55045028       2.62836172        1       0.00215386       0.01222992       0.00253979 
H      -3.80438157       3.75589028       0.85066389        1      -0.01808139      -0.00836894       0.03060559 
H      -3.66259245       2.39169855      -1.20175716        1       0.02232474       0.00958168       0.00263749 
H       4.04702948      -0.37677235       1.08462326        1      -0.00233888       0.01334418       0.00838745 
H       3.42180350      -1.88768687       1.04867914        1       0.00318606      -0.01101327       0.00225110 
H       3.80850253       2.19284825      -1.08688069        1      -0.00313999      -0.00757123      -0.00590613 
