27
Properties=species:S:1:pos:R:3:Z:I:1:forces:R:3 magmom=0 energy=-18675.8776265 dipole="-0.4667144 0.4990674 0.1710137" pbc="F F F"
C       2.55315428      -0.46531767      -0.22833023        6       0.02388941      -0.01804035      -0.01560588 
C       1.21422215      -0.29225826       0.52075535        6      -0.01020533      -0.02301389      -0.02522983 
C       1.23184712       0.60510734       1.72089796        6       0.03473926      -0.02089021      -0.00230386 
C       0.37355512       0.44437624       2.86394383        6      -0.02030272       0.01005764      -0.00784269 
C       0.64839142       1.50337569       3.75278007        6      -0.01279510       0.00222087       0.02122544 
C       1.97631487       1.72495727       1.96005855        6       0.00171020      -0.00040906       0.00236115 
N       1.63301352       2.26515524       3.17864000        7      -0.02496845       0.02843167       0.00421481 
C      -0.60652942      -0.49388663       3.20737402        6       0.00007451      -0.00098406       0.01088965 
C      -0.02480676       1.64898698       4.96478527        6       0.01636734      -0.00240347       0.01563241 
C       3.01370225       0.85817113      -0.79735099        6       0.01396654       0.03207755      -0.01167502 
C      -1.27109305      -0.35901054       4.40891563        6       0.01915426       0.00053258       0.00160540 
C      -0.98114128       0.70514477       5.27969861        6      -0.01476322       0.03493224      -0.01845929 
N       3.64205190      -1.05237696       0.52040297        7       0.01079179      -0.00277288       0.02539690 
O       2.13439804       1.34844960      -1.68720248        8      -0.00376446      -0.01854809      -0.03900971 
H       2.34516203      -1.10256609      -1.09226711        1      -0.00688212       0.00621914       0.00288910 
H       0.90889511      -1.29219567       0.83830471        1      -0.01016270      -0.00059665       0.00760851 
H       0.46070659       0.04443137      -0.19564930        1      -0.00790038       0.01050532       0.00247150 
O       4.01446861       1.44337213      -0.49196254        8      -0.00351532      -0.01534064       0.00469751 
H       2.73924560       2.19466444       1.36241120        1       0.00360494      -0.00506590       0.03287490 
H       2.02877839       3.10130755       3.56734627        1       0.00586314      -0.01850824       0.01991124 
H      -0.84128846      -1.31058220       2.53650940        1      -0.01030529      -0.01150944       0.01715003 
H      -2.02753590      -1.07865340       4.69074850        1       0.00219732       0.00724002      -0.01385012 
H      -1.52424591       0.79356383       6.21139367        1       0.01554978      -0.02129758      -0.01690979 
H       0.19084056       2.47122847       5.63511071        1       0.00769398      -0.01340290      -0.01292278 
H       3.99537891      -0.40131496       1.21102992        1       0.00197672       0.01182389      -0.00991237 
H       3.33505115      -1.88792863       1.00048253        1      -0.01731998       0.02167970       0.01977142 
H       2.47782611       2.19780773      -1.99149192        1      -0.01469401       0.00706277      -0.01497858 
