27
Properties=species:S:1:pos:R:3:Z:I:1:forces:R:3 magmom=0 energy=-18675.8880811 dipole="-0.506436 0.5369157 -0.0690601" pbc="F F F"
C       2.56746864      -0.52683569      -0.16975123        6      -0.01372599      -0.00889993       0.00530218 
C       1.17046563      -0.22075799       0.42273758        6      -0.01033152       0.00986640       0.01264859 
C       1.09881242       0.96875728       1.33384288        6      -0.02988692      -0.00906725       0.00417763 
C       0.36306125       1.00594408       2.56982370        6      -0.00020060      -0.02459435       0.00221146 
C       0.52652365       2.29195887       3.12404910        6       0.01059886      -0.02225470      -0.00277155 
C       1.66034565       2.20581489       1.19097135        6       0.01074084      -0.01962199       0.01558690 
N       1.31735323       3.00307011       2.25927919        7       0.00473566       0.00085124      -0.00253033 
C      -0.41530978       0.06616096       3.25588326        6       0.01169029      -0.02526310       0.00418319 
C      -0.04249426       2.65264316       4.34459986        6       0.00712021      -0.01478688      -0.00805023 
C       2.95301580       0.55302247      -1.15245269        6       0.01230170      -0.01218826      -0.00812967 
C      -0.98494053       0.41770875       4.46160406        6      -0.00757658       0.01309458      -0.02498511 
C      -0.79288168       1.70012065       5.00297252        6      -0.02378199       0.00497652      -0.00736261 
N       3.63996657      -0.69170542       0.78594716        7       0.00526901      -0.01044120      -0.00708941 
O       2.18357713       0.51941433      -2.25350104        8       0.00787246      -0.00243571      -0.01613208 
H       2.46552747      -1.44296705      -0.75537676        1      -0.01072567      -0.01844355      -0.00119891 
H       0.87440630      -1.10485286       0.99158797        1       0.00095866       0.00159455      -0.00449059 
H       0.45501353      -0.13392992      -0.39877978        1       0.00457055       0.01259512       0.00241571 
O       3.81061448       1.37380606      -0.98590431        8       0.01089047       0.02345330      -0.02330104 
H       2.30531057       2.58791275       0.41804808        1      -0.02227126       0.02949266       0.00915585 
H       1.61532073       3.95227335       2.38653996        1       0.01799001       0.01371205       0.01451887 
H      -0.56606794      -0.92444646       2.84593749        1      -0.01637891      -0.00610508       0.01055145 
H      -1.59421513      -0.29848425       4.99712085        1       0.04321680       0.01756470       0.00724306 
H      -1.24282079       1.94560729       5.95493371        1      -0.01681898       0.00643079      -0.00024353 
H       0.10013564       3.63943950       4.76417062        1       0.00321187       0.01195774      -0.00504774 
H       3.92545687       0.21033718       1.14687456        1       0.00947333       0.01838843       0.00366850 
H       3.33197335      -1.25614644       1.56669660        1      -0.00424628       0.00260227       0.02537823 
H       2.46118128       1.24655066      -2.82471856        1      -0.00469602       0.00752171      -0.00570883 
