27
Properties=species:S:1:pos:R:3:Z:I:1:forces:R:3 magmom=0 energy=-18675.8094212 dipole="0.4118897 0.289373 0.8179548" pbc="F F F"
C       2.53836811      -0.67190141      -0.30583759        6       0.02087870       0.00891761      -0.00002005 
C       1.17307361      -0.45914189       0.38021144        6      -0.00143833       0.00222370      -0.01091037 
C       1.22162472       0.26663499       1.68975559        6      -0.01916212       0.00854882      -0.00570302 
C       0.32811417       0.03661192       2.79256770        6      -0.02573818       0.01190441      -0.00210995 
C       0.67185417       0.94371892       3.81635097        6       0.02149540      -0.01569437       0.00692378 
C       2.04970220       1.27776992       2.08037879        6       0.02315983      -0.01763468       0.00674529 
N       1.72783491       1.68716250       3.35536322        7       0.00124210       0.01359707       0.00129481 
C      -0.73553427      -0.84904827       2.99864884        6      -0.00750233      -0.00570806       0.00603752 
C      -0.00470685       0.98065312       5.03525271        6      -0.01132772       0.00432588      -0.02070952 
C       3.03869523       0.65264608      -0.85670476        6      -0.00350889       0.02220029       0.00196581 
C      -1.41109581      -0.81491332       4.20014732        6      -0.00300469       0.00614000       0.00194211 
C      -1.04769887       0.09406270       5.20870847        6       0.01420180      -0.01302727       0.00769552 
N       3.54722549      -1.35920238       0.47503375        7       0.02264006      -0.00506338      -0.00105904 
O       4.25206663       1.01902469      -0.41027089        8      -0.00337077      -0.00770560      -0.00678658 
H       2.34808952      -1.26664628      -1.20301822        1      -0.00988193       0.00916773       0.01070391 
H       0.74100366      -1.44883389       0.54379442        1       0.00152986      -0.00445212       0.01300598 
H       0.51558227       0.05877981      -0.32131733        1      -0.01225249      -0.00164422      -0.01279294 
O       2.40459053       1.32861216      -1.61745904        8      -0.00367524       0.00382842      -0.01903964 
H       2.86262681       1.74879074       1.55394756        1       0.00853581       0.02123186       0.00353403 
H       2.19149752       2.42103129       3.85812737        1      -0.00257702      -0.00435735       0.01888727 
H      -1.02693220      -1.54648667       2.22384726        1      -0.00371915      -0.01202248       0.00450205 
H      -2.23433623      -1.49472651       4.37311555        1       0.00835825       0.01220539       0.00321121 
H      -1.59533398       0.09779422       6.14139558        1      -0.00167682      -0.00307931      -0.00658588 
H       0.27168936       1.67744075       5.81637996        1       0.00374450      -0.00415717      -0.02843409 
H       3.78992100      -0.82336951       1.29987419        1      -0.00986831      -0.00949812       0.00103502 
H       3.18414187      -2.24931147       0.79186638        1       0.00723123      -0.00177956       0.00997850 
H       4.47051362       1.85313978      -0.84748866        1      -0.01431338      -0.01846746       0.01668826 
