27
Properties=species:S:1:pos:R:3:Z:I:1:forces:R:3 magmom=0 energy=-18675.886228 dipole="-0.4001107 0.5490171 0.1615544" pbc="F F F"
C       2.50227125      -0.74072770      -0.27728920        6       0.01112907       0.01257141       0.00597288 
C       1.10000573      -0.38305051       0.28402529        6      -0.01910839      -0.02014012      -0.00270321 
C       1.08844213       0.18967100       1.67025050        6      -0.00012732       0.00738637      -0.01370156 
C       0.19928923      -0.22384757       2.72322916        6      -0.02678987       0.01655801      -0.01404044 
C       0.50497329       0.54799758       3.86404184        6      -0.00986198      -0.00816706      -0.01023294 
C       1.87299674       1.17299584       2.20224991        6       0.01230921       0.00321265      -0.00785261 
N       1.52503665       1.39482030       3.51491175        7       0.01713975      -0.02257336       0.00765047 
C      -0.83810250      -1.16185775       2.79792935        6      -0.00522438       0.00209231       0.00278116 
C      -0.17528136       0.39352097       5.07124828        6      -0.00573099       0.01500979      -0.00800379 
C       3.22356274       0.53415489      -0.65472137        6       0.00751318       0.03533786       0.00315037 
C      -1.51877890      -1.31286500       3.98778445        6       0.00978608      -0.00956502       0.01682679 
C      -1.18608163      -0.54409659       5.11580673        6      -0.00479979       0.02207714      -0.00167574 
N       3.35733648      -1.52232340       0.58821294        7       0.00780988       0.01171698       0.00696219 
O       2.69298050       1.09395359      -1.75602077        8      -0.00384082       0.00540014      -0.02104073 
H       2.34056252      -1.29160042      -1.20632410        1      -0.00742000       0.03139446       0.00185500 
H       0.52401348      -1.30977626       0.29543230        1      -0.01405489      -0.01338342       0.00665797 
H       0.60026926       0.27695951      -0.42986953        1      -0.00646051      -0.00496634       0.02947287 
O       4.12662845       1.03617192      -0.04591735        8      -0.01901310      -0.03015184       0.00208763 
H       2.67443499       1.73421375       1.75313533        1       0.01858332       0.01126370      -0.00145951 
H       1.97590303       2.05070130       4.12633478        1      -0.00941641      -0.00816258      -0.00169029 
H      -1.11105129      -1.75185585       1.93148748        1       0.01376929      -0.00919823       0.02558659 
H      -2.32307775      -2.03167740       4.06141496        1       0.00170541      -0.00837604      -0.01481110 
H      -1.73834496      -0.68312525       6.03537054        1       0.00554098      -0.01604019      -0.00962076 
H       0.07237765       0.98797892       5.94107946        1       0.01282441       0.00806586      -0.02034355 
H       3.64933905      -0.95963192       1.37939413        1       0.02687842      -0.02734528      -0.00910752 
H       2.85760884      -2.32536613       0.94938389        1      -0.01817708       0.02810375       0.00466259 
H       3.15812608       1.92476321      -1.91985131        1       0.00503648      -0.03212095       0.02261722 
