27
Properties=species:S:1:pos:R:3:Z:I:1:forces:R:3 magmom=0 energy=-18675.8913683 dipole="-0.3243034 0.4478533 0.1352697" pbc="F F F"
C       2.54934455      -0.55925122      -0.22309621        6       0.00149237      -0.01601355      -0.00303616 
C       1.17567233      -0.34591300       0.45917897        6       0.01436825       0.00119999       0.01256848 
C       1.17117050       0.56802324       1.64911750        6       0.01309345      -0.00763875      -0.00150975 
C       0.32107575       0.39859736       2.79757650        6      -0.00845806       0.00218801      -0.01896636 
C       0.63482117       1.42455563       3.71209638        6       0.00385964      -0.00130951      -0.00697612 
C       1.94002371       1.66798802       1.90653574        6      -0.00004494      -0.00524233      -0.00791566 
N       1.61813419       2.18773064       3.13990363        7       0.00763412      -0.00604662      -0.01455332 
C      -0.67116544      -0.52883651       3.13635227        6       0.01816227      -0.02171436       0.00928035 
C       0.00877264       1.53596689       4.95128332        6       0.02638199      -0.02586113       0.01224550 
C       2.93968949       0.68708403      -0.98486766        6      -0.00013935       0.01246620       0.00945976 
C      -1.29361063      -0.42287227       4.36233235        6      -0.00562671      -0.02369863       0.00115967 
C      -0.95033205       0.59659120       5.26509254        6      -0.02429821      -0.00147982      -0.00539927 
N       3.64697098      -0.94043725       0.64030301        7       0.00154323       0.01199533       0.02108474 
O       2.20479873       0.83702110      -2.09790975        8       0.01194596       0.01065743      -0.00436856 
H       2.40449430      -1.33564269      -0.97641807        1      -0.01925093      -0.01615075      -0.01175205 
H       0.83947992      -1.33222445       0.78859933        1      -0.00942150       0.00952686       0.00605227 
H       0.46163186      -0.02197761      -0.30336058        1      -0.01033388       0.01288740       0.04165594 
O       3.77439896       1.48072439      -0.64901389        8       0.02028683      -0.02829900      -0.01528943 
H       2.70795511       2.13098653       1.30984195        1       0.00530244      -0.01428762       0.01058955 
H       2.07864768       2.96448890       3.57688655        1      -0.00309170       0.02710102      -0.02161583 
H      -0.94534238      -1.31946880       2.44915724        1      -0.00294885       0.00505201       0.00271997 
H      -2.05696300      -1.13582867       4.63928784        1      -0.01552772      -0.02170423       0.00639804 
H      -1.44503170       0.64434567       6.22505041        1      -0.03016748       0.00990600       0.00070083 
H       0.27250451       2.31920676       5.64792854        1       0.01222117       0.04206227       0.01406964 
H       3.99056698      -0.12805162       1.13696980        1       0.03961016       0.01081689       0.01163892 
H       3.34362918      -1.61386456       1.33304154        1      -0.03114326       0.01443525      -0.03447197 
H       2.48110866       1.66181974      -2.51711807        1      -0.01544930       0.01915158      -0.01376913 
