27
Properties=species:S:1:pos:R:3:Z:I:1:forces:R:3 magmom=0 energy=-18675.6274967 dipole="-0.4073683 -0.4551033 0.740179" pbc="F F F"
C       2.53145013      -0.60467750      -0.18990977        6      -0.01261892       0.00567345      -0.00095943 
C       1.27906912      -0.02764189       0.52682367        6      -0.00777219       0.00846803      -0.01601689 
C      -0.00914515      -0.71376694       0.20089467        6      -0.00022744       0.00745954      -0.02087988 
C      -1.30066595      -0.08915002       0.26749573        6       0.01037594      -0.00290247       0.02127665 
C      -2.25967772      -1.06023308      -0.08089350        6       0.01416889      -0.00137112      -0.00488386 
C      -0.22952471      -2.00530811      -0.17666387        6      -0.01297646      -0.00586345       0.00245931 
N      -1.57988582      -2.22323423      -0.34029956        7      -0.00183515       0.00669166       0.00244836 
C      -1.72201112       1.20842245       0.57523862        6       0.00049905      -0.00776478      -0.00768955 
C      -3.62072928      -0.76880030      -0.13827902        6      -0.00954820      -0.01137230      -0.00320272 
C       3.07334063       0.43998051      -1.14025575        6      -0.02325666       0.00302125       0.04366289 
C      -3.06746473       1.50132461       0.52132602        6      -0.00241663       0.01584936      -0.02042875 
C      -4.00755963       0.52052624       0.16512374        6      -0.01037157      -0.00190791      -0.00786058 
N       3.61333329      -1.04052832       0.68464695        7       0.01657508       0.00351809      -0.02788742 
O       3.64576354       1.45973099      -0.46612740        8       0.02621430      -0.01684253      -0.00432125 
H       2.23704363      -1.44209149      -0.81763788        1       0.03960142      -0.01467210       0.00391569 
H       1.16961033       1.03295417       0.29300730        1       0.00697900       0.02829525       0.01410656 
H       1.46852324      -0.07070601       1.60291278        1      -0.01430505       0.00038417      -0.00749739 
O       2.98383740       0.42424482      -2.33201671        8      -0.01467041      -0.01500069      -0.02741249 
H       0.46751673      -2.80756041      -0.35600504        1       0.00296803       0.01594675       0.01979652 
H      -1.99336479      -3.08898814      -0.63242919        1      -0.00929135      -0.00635824      -0.02060287 
H      -1.00373957       1.97174047       0.84426403        1       0.00684849       0.00638343       0.02056636 
H      -3.40614717       2.50242698       0.74669554        1      -0.02615172       0.01112182       0.01270953 
H      -5.05414455       0.78678365       0.12105436        1      -0.02400207      -0.01887200       0.01231188 
H      -4.34384052      -1.52259085      -0.41879226        1      -0.02655698       0.00156930      -0.00018748 
H       3.96116537      -0.25828946       1.22682638        1      -0.00313865       0.00111694       0.00492644 
H       3.26456326      -1.73234690       1.33570583        1       0.03603484      -0.02234340       0.01983092 
H       3.94263213       2.10662742      -1.11787299        1       0.03887441       0.00977199      -0.00818058 
