15
Energy: -573086.0134908  eV PBE+vdW (tier 2 basis)
N    2.519736  -6.204910  0.415954
C    2.867823  -7.380324  1.208280
C    4.415178  -7.563406  0.992641
O    5.152677  -8.505178  1.407324
H    2.043382  -6.388123  -0.469510
H    2.037441  -5.465918  0.929312
H    2.741025  -7.128805  2.274832
C    1.994610  -8.606473  0.839959
S    1.796999  -9.841077  2.228925
H    2.343598  -9.129553  -0.059019
H    0.956723  -8.274735  0.676274
H    1.409559  -10.913117  1.472753
O    4.954323  -6.605739  0.346985
H    4.130947  -5.994920  0.122816
Hg    4.267104  -10.255900  2.421783
