15
Energy: -573085.6594423  eV PBE+vdW (tier 2 basis)
N    -0.161153  1.283861  1.108937
C    0.225881  -0.008603  1.692167
C    1.748550  -0.097096  2.011708
O    2.603554  0.566053  1.411131
H    -0.968194  1.139986  0.461299
H    -0.399633  1.993709  1.813136
H    -0.317104  -0.136960  2.643027
C    -0.153938  -1.159896  0.717931
S    -1.809061  -0.930348  -0.024914
H    -0.092271  -2.133633  1.217809
H    0.533028  -1.188616  -0.142216
H    -2.544387  -1.275884  1.066844
O    2.155666  -0.968877  2.890668
H    1.447877  -1.448382  3.369501
Hg    1.698620  2.162773  -0.035125
