15
Energy: -573085.5700265  eV PBE+vdW (tier 2 basis)
N    0.533879  0.039576  0.807005
C    0.068150  -0.333821  2.146868
C    1.208508  -0.324347  3.223822
O    2.404342  -0.239537  2.941573
H    0.419288  -0.703756  0.111035
H    0.101569  0.898467  0.452130
H    -0.648206  0.437937  2.475556
C    -0.658864  -1.704912  2.120705
S    0.478626  -3.121036  2.050502
H    -1.376134  -1.736258  1.287049
H    -1.260906  -1.786199  3.042301
H    -0.451938  -4.025794  1.644829
O    0.873443  -0.431386  4.482973
H    -0.086691  -0.431958  4.672120
Hg    2.912036  0.512972  0.757349
