15
Energy: -573086.1118317  eV PBE+vdW (tier 2 basis)
N    -0.212183  -1.126878  0.120865
C    -0.257838  -0.151130  1.278601
C    1.195612  0.046492  1.773843
O    1.945736  -0.930972  1.612438
H    0.568101  -1.793646  0.292121
H    -1.096338  -1.634428  -0.033000
H    -0.736063  0.772071  0.929649
C    -1.026486  -0.667085  2.534175
S    -0.189070  -1.479589  3.966955
H    -1.814769  -1.385610  2.253433
H    -1.515514  0.194613  3.005972
H    0.276424  -2.601636  3.350562
O    1.326876  1.043107  2.554405
H    0.008605  -0.632343  -0.759279
Hg    2.294905  -0.228966  4.178264
