15
Energy: -573086.4308579  eV PBE+vdW (tier 2 basis)
N    -0.058835  -0.458250  -0.034740
C    0.064372  0.141891  1.354744
C    1.586663  0.190103  1.692030
O    2.375519  0.030101  0.760161
H    -0.783079  -0.000879  -0.607436
H    0.877013  -0.332425  -0.483719
H    -0.248741  1.195137  1.269211
C    -0.764915  -0.595046  2.406814
S    -0.564983  0.266625  3.993829
H    -0.473030  -1.647481  2.508223
H    -1.835675  -0.546231  2.146926
H    -0.154966  -0.808599  4.717030
O    1.857723  0.448507  2.933768
H    -0.258748  -1.469860  -0.016624
Hg    4.161983  0.558965  2.786832
