15
Energy: -573086.1353725  eV PBE+vdW (tier 2 basis)
N    -0.288333  0.124834  0.008280
C    0.094500  0.055544  1.471987
C    1.629709  0.296752  1.592202
O    2.171174  -0.019865  2.688050
H    -0.070285  -0.781704  -0.449201
H    -1.295422  0.311086  -0.114673
H    -0.375422  0.919630  1.971162
C    -0.388966  -1.246311  2.140170
S    0.087671  -2.796580  1.308336
H    -1.481481  -1.221159  2.250237
H    0.059180  -1.270764  3.144332
H    -1.112026  -3.059299  0.728058
O    2.192880  0.838623  0.609526
H    0.251203  0.863876  -0.473994
Hg    4.231914  0.810688  1.988032
