15
Energy: -573085.6308543  eV PBE+vdW (tier 2 basis)
N    0.517575  -0.579537  0.114316
C    0.304888  -0.036583  1.458982
C    1.575180  -0.121146  2.375645
O    2.506717  -0.899145  2.168789
H    -0.277178  -1.141338  -0.218309
H    0.738127  0.135337  -0.587695
H    0.072873  1.041469  1.367386
C    -0.859859  -0.783824  2.142506
S    -2.371009  -0.267199  1.245841
H    -0.958700  -0.519592  3.204603
H    -0.716054  -1.871829  2.078361
H    -3.233477  -1.097474  1.894694
O    1.621307  0.637650  3.435616
H    0.884986  1.277416  3.529292
Hg    2.480135  -2.008799  0.086164
