15
Energy: -573086.1345098  eV PBE+vdW (tier 2 basis)
N    -0.050702  -1.361023  0.721763
C    -0.127850  -0.184373  1.673421
C    1.315870  0.156996  2.151888
O    2.259739  -0.290112  1.455215
H    0.042782  -2.242348  1.261353
H    -0.896178  -1.432544  0.135005
H    -0.455852  0.687099  1.082017
C    -1.123382  -0.425585  2.823139
S    -0.853167  -1.924849  3.823053
H    -2.148669  -0.437515  2.428539
H    -1.026778  0.431023  3.506359
H    -1.818626  -2.692367  3.253651
O    1.417661  0.897745  3.169263
H    0.777226  -1.277511  0.107489
Hg    3.739927  0.945360  2.986843
