31
Energy: -106813.120282 eV PBE+vdW (tier 2 basis)
C    0.68317  -0.87726  1.75066
C    0.26142  0.30476  2.55807
O    1.17384  1.01555  3.14728
H    -0.14513  -1.50549  1.41401
H    1.36907  -1.49621  2.34424
H    1.23820  -0.53424  0.86440
N    -1.00435  0.65631  2.69001
C    -2.18643  0.16086  1.95995
C    -3.08978  1.41774  1.82941
O    -3.06820  2.21833  2.79217
H    -1.24283  1.50492  3.22814
H    -1.86370  -0.19846  0.97721
C    -2.95012  -1.00394  2.64452
C    -3.57428  -0.82159  4.00453
N    -4.08485  0.35985  4.52792
C    -3.90930  -1.80324  4.90620
C    -4.70175  0.12064  5.68975
N    -4.60421  -1.19190  5.92687
H    -2.28436  -1.87609  2.70327
H    -3.74650  -1.29167  1.93830
H    -3.93704  1.28683  4.09027
H    -3.73619  -2.87256  4.88952
H    -5.18725  0.85402  6.32400
H    -5.00113  -1.66389  6.73813
N    -3.87003  1.57664  0.76370
C    -4.03503  0.75280  -0.43560
H    -4.44591  2.41997  0.80992
H    -5.05680  0.35539  -0.47898
H    -3.85818  1.36530  -1.32760
H    -3.33274  -0.08525  -0.44466
Sr    3.00670  2.06049  3.79161
