31
Energy: -106813.194946 eV PBE+vdW (tier 2 basis)
C    -0.09300  -0.79789  1.82828
C    0.15642  0.54846  1.23473
O    1.38172  0.95052  1.08904
H    0.22536  -1.57446  1.11592
H    -1.13798  -0.98258  2.08935
H    0.51705  -0.91611  2.73320
N    -0.82653  1.33969  0.84404
C    -2.26469  1.03605  0.70771
C    -2.69919  1.83460  -0.55330
O    -2.21124  2.97481  -0.69937
H    -0.59597  2.24530  0.40969
H    -2.38058  -0.04156  0.53930
C    -3.13493  1.39797  1.94110
C    -3.23560  2.82008  2.42770
N    -3.18671  3.96318  1.64068
C    -3.56956  3.25026  3.68958
C    -3.47422  5.04166  2.37592
N    -3.71258  4.61909  3.62244
H    -2.81185  0.78282  2.79241
H    -4.15144  1.04696  1.69701
H    -2.89968  3.95043  0.64465
H    -3.74294  2.69953  4.60622
H    -3.50476  6.06850  2.02897
H    -3.97688  5.22533  4.39762
N    -3.58632  1.26278  -1.36228
C    -4.15387  1.90869  -2.55150
H    -3.89641  0.31566  -1.15864
H    -3.68133  2.88499  -2.68304
H    -5.23648  2.03156  -2.42712
H    -3.96345  1.28477  -3.43226
Sr    3.56699  1.14330  0.84276
