31
Energy: -106814.441914 eV PBE+vdW (tier 2 basis)
C    -0.23483  -1.99113  0.56877
C    -0.39656  -0.90097  1.57494
O    0.53618  -0.07899  1.80621
H    -0.04418  -1.53383  -0.41362
H    -1.10214  -2.65514  0.49155
H    0.65385  -2.58957  0.81110
N    -1.57531  -0.80724  2.22863
C    -1.96150  0.25229  3.17184
C    -1.22918  0.06124  4.53468
O    -0.02270  0.44143  4.61765
H    -2.25435  -1.54089  2.04148
H    -1.56011  1.19817  2.77798
C    -3.50740  0.35324  3.28146
C    -4.25599  0.81040  2.06299
N    -4.46228  2.14864  1.73274
C    -4.96589  0.09398  1.13117
C    -5.25782  2.24697  0.65960
N    -5.56291  1.00295  0.28388
H    -3.74517  1.03543  4.11153
H    -3.92978  -0.62439  3.56278
H    -4.12641  2.95894  2.24949
H    -5.12679  -0.97235  1.02481
H    -5.59907  3.16536  0.19181
H    -6.17301  0.77218  -0.50120
N    -1.86004  -0.48842  5.55738
C    -1.27093  -0.72379  6.88345
H    -2.82191  -0.79346  5.43374
H    -0.82781  -1.72724  6.92852
H    -2.06315  -0.64917  7.63473
H    -0.50421  0.02936  7.08221
Sr    1.93240  0.78098  3.42171
