31
Energy: -106813.955049 eV PBE+vdW (tier 2 basis)
C    0.52777  0.56066  -0.34206
C    0.19830  0.77188  1.09514
O    0.97485  1.40782  1.86634
H    -0.20416  -0.05343  -0.87708
H    1.52139  0.10028  -0.42929
H    0.59324  1.54385  -0.83291
N    -0.96467  0.27624  1.56967
C    -1.49256  0.52456  2.92115
C    -0.63322  -0.23147  3.97558
O    0.27823  0.44387  4.55305
H    -1.55004  -0.23189  0.91011
H    -1.30082  1.58217  3.15432
C    -3.02300  0.31643  2.88020
C    -3.79836  0.61546  4.13013
N    -5.19129  0.62662  4.10493
C    -3.45749  0.91730  5.42418
C    -5.67999  0.92000  5.31532
N    -4.63544  1.09820  6.12507
H    -3.26662  -0.70416  2.54900
H    -3.39193  0.98804  2.08720
H    -5.78048  0.45039  3.29186
H    -2.49497  1.02360  5.90689
H    -6.72906  0.99902  5.58440
H    -4.71139  1.33555  7.11395
N    -0.78451  -1.51722  4.25635
C    -1.68957  -2.52322  3.68552
H    -0.13733  -1.85851  4.96956
H    -1.75343  -2.42812  2.59676
H    -2.68662  -2.46543  4.13995
H    -1.27343  -3.51061  3.90779
Sr    2.08262  1.76512  3.83291
