31
Energy: -106813.327151 eV PBE+vdW (tier 2 basis)
C    -0.27086  0.15466  0.79012
C    -0.51236  0.07509  2.26222
O    0.37254  0.45427  3.08032
H    0.61970  0.76349  0.60590
H    -1.12209  0.59596  0.25865
H    -0.08935  -0.84612  0.36616
N    -1.69405  -0.39410  2.76802
C    -2.33228  -1.64732  2.35399
C    -1.29441  -2.80519  2.57510
O    -0.16533  -2.55126  3.09360
H    -1.76418  -0.22176  3.77119
H    -3.12474  -1.81511  3.09899
C    -3.00804  -1.57616  0.94190
C    -4.26946  -2.36126  0.73524
N    -5.50740  -2.00861  1.27400
C    -4.52708  -3.42766  -0.09270
C    -6.46823  -2.81207  0.79982
N    -5.88183  -3.68068  -0.02648
H    -2.30458  -1.87316  0.15497
H    -3.23935  -0.51583  0.76429
H    -5.69936  -1.22006  1.88952
H    -3.87344  -3.98736  -0.75198
H    -7.52640  -2.76180  1.03914
H    -6.37876  -4.40451  -0.54729
N    -1.64925  -4.03602  2.24963
C    -0.81295  -5.22825  2.45880
H    -2.58319  -4.18202  1.87471
H    -0.64096  -5.38965  3.52982
H    0.14704  -5.11278  1.94342
H    -1.33731  -6.09482  2.04805
Sr    1.55341  -1.26093  4.11244
