31
Energy: -106813.404754 eV PBE+vdW (tier 2 basis)
C    -0.17209  0.24951  0.23238
C    -0.22057  0.24533  1.72505
O    0.79833  0.57968  2.39107
H    -1.14341  0.45399  -0.22636
H    0.20959  -0.71198  -0.14693
H    0.54659  1.01675  -0.08154
N    -1.36974  -0.05740  2.41210
C    -2.14316  -1.30175  2.27353
C    -1.24095  -2.47280  2.79980
O    0.01214  -2.28169  2.92417
H    -1.26948  0.20254  3.39542
H    -2.98053  -1.20046  2.98074
C    -2.74466  -1.59948  0.88207
C    -3.78470  -0.62112  0.41149
N    -4.58463  -0.89459  -0.69623
C    -4.19622  0.60810  0.86201
C    -5.44319  0.10962  -0.91223
N    -5.21597  1.02643  0.02943
H    -3.21469  -2.59220  0.93854
H    -1.95280  -1.70048  0.12635
H    -4.54849  -1.73171  -1.27602
H    -3.85665  1.21581  1.69032
H    -6.18448  0.16391  -1.70372
H    -5.73042  1.90332  0.11368
N    -1.78298  -3.62599  3.15217
C    -3.19038  -4.04215  3.19264
H    -1.11015  -4.32873  3.46578
H    -3.43367  -4.66568  2.32234
H    -3.86016  -3.17827  3.23843
H    -3.34469  -4.63981  4.09796
Sr    1.99918  -1.12666  3.43878
