31
Energy: -106813.513689 eV PBE+vdW (tier 2 basis)
C    -1.95368  3.20891  0.79919
C    -0.98719  2.21604  1.34051
O    -0.07018  2.55588  2.13554
H    -2.66282  2.79381  0.07772
H    -1.36635  3.99717  0.30046
H    -2.49441  3.71410  1.61179
N    -1.04835  0.89731  0.94910
C    -2.27586  0.10784  1.09196
C    -2.54930  -0.05865  2.62574
O    -1.65721  0.32184  3.45381
H    -0.23619  0.38625  1.30266
H    -3.11456  0.67103  0.65871
C    -2.12957  -1.25437  0.35490
C    -2.27459  -1.21684  -1.13652
N    -1.32732  -0.71096  -2.02394
C    -3.27399  -1.72985  -1.92615
C    -1.72292  -0.90599  -3.28916
N    -2.90638  -1.52135  -3.23782
H    -2.88563  -1.95502  0.72820
H    -1.16173  -1.70615  0.62662
H    -0.44272  -0.27467  -1.77718
H    -4.19225  -2.24249  -1.66523
H    -1.18115  -0.62224  -4.18587
H    -3.44292  -1.80760  -4.05749
N    -3.69497  -0.55847  3.05444
C    -4.88063  -0.98145  2.30094
H    -3.76220  -0.65357  4.07005
H    -5.77154  -0.65313  2.84786
H    -4.91185  -2.07576  2.21519
H    -4.90232  -0.52335  1.30777
Sr    0.00578  1.72777  4.33319
