31
Energy: -106813.585377 eV PBE+vdW (tier 2 basis)
C    -1.37538  3.40588  0.38831
C    -0.69096  2.45443  1.30690
O    0.24032  2.83313  2.06909
H    -1.93315  4.16541  0.95589
H    -2.04131  2.92319  -0.33245
H    -0.59490  3.95622  -0.15906
N    -1.04196  1.12684  1.32055
C    -2.43007  0.70770  1.51026
C    -2.79401  0.97940  3.01882
O    -1.93516  1.53035  3.77656
H    -0.39293  0.58637  1.89675
H    -3.07539  1.36213  0.90570
C    -2.64531  -0.76722  1.06793
C    -2.62616  -1.01657  -0.41229
N    -1.49060  -1.35722  -1.14250
C    -3.66243  -1.05821  -1.31307
C    -1.81191  -1.60038  -2.41989
N    -3.12920  -1.41397  -2.53270
H    -3.61689  -1.12049  1.43759
H    -1.90266  -1.41043  1.56522
H    -0.54675  -1.46131  -0.77767
H    -4.72529  -0.89198  -1.18299
H    -1.13184  -1.90052  -3.21083
H    -3.65737  -1.54407  -3.39623
N    -3.99829  0.65916  3.45212
C    -4.48274  0.88050  4.82392
H    -4.66377  0.26050  2.79469
H    -5.45198  0.38633  4.92983
H    -4.60563  1.95343  5.01675
H    -3.77880  0.45003  5.54425
Sr    -0.05851  2.80838  4.39158
