31
Energy: -106814.329198 eV PBE+vdW (tier 2 basis)
C    0.59950  3.96620  1.79301
C    0.02152  2.80501  2.53463
O    0.50253  1.64264  2.39211
H    0.08648  4.91529  1.97994
H    0.57336  3.74727  0.71586
H    1.65957  4.07814  2.06163
N    -1.02391  3.04643  3.35412
C    -1.84132  2.11011  4.15198
C    -1.02552  1.31772  5.20739
O    -0.19221  0.42437  4.87175
H    -1.30260  4.02239  3.41562
H    -2.51717  2.76555  4.71563
C    -2.71738  1.15457  3.29060
C    -3.91807  1.80073  2.65265
N    -4.28521  1.57730  1.32869
C    -4.92004  2.58284  3.17598
C    -5.44767  2.18362  1.05294
N    -5.83675  2.80149  2.16954
H    -3.06748  0.33553  3.93847
H    -2.09484  0.68758  2.51648
H    -3.78165  1.00889  0.65104
H    -5.07623  2.97778  4.17236
H    -5.97157  2.17378  0.10225
H    -6.69698  3.34362  2.25744
N    -1.28038  1.59219  6.47694
C    -0.66433  0.92093  7.62773
H    -1.93754  2.33938  6.68913
H    0.22509  1.47379  7.95779
H    -0.38784  -0.10022  7.35272
H    -1.39036  0.89640  8.44651
Sr    1.47200  -0.18134  3.39707
