31
Energy: -106814.266470 eV PBE+vdW (tier 2 basis)
C    0.01408  1.26050  0.68214
C    -0.07734  0.85773  2.11501
O    0.87467  1.06439  2.92178
H    0.25405  2.33204  0.62694
H    -0.89824  1.06434  0.10906
H    0.85245  0.72979  0.20809
N    -1.21359  0.26387  2.54565
C    -1.45718  -0.14475  3.93732
C    -0.51619  -1.32204  4.34002
O    0.55403  -1.00844  4.95070
H    -1.93296  0.07649  1.85088
H    -1.10599  0.67505  4.58048
C    -2.95454  -0.37788  4.22904
C    -3.80209  0.85801  4.35986
N    -5.07134  0.79528  4.92948
C    -3.63681  2.16800  3.98743
C    -5.65383  2.00003  4.91068
N    -4.79003  2.84185  4.34155
H    -3.01911  -0.94103  5.17317
H    -3.40198  -1.03069  3.46405
H    -5.51904  -0.03483  5.31573
H    -2.81485  2.67551  3.50054
H    -6.64130  2.24422  5.29050
H    -4.97015  3.83469  4.19321
N    -0.76631  -2.59166  4.05877
C    -1.85097  -3.22379  3.29727
H    -0.06303  -3.23293  4.43171
H    -2.15646  -2.60211  2.45012
H    -2.70951  -3.45128  3.94150
H    -1.46902  -4.16759  2.89483
Sr    2.34058  0.42524  4.59246
