31
Energy: -106814.386511 eV PBE+vdW (tier 2 basis)
C    0.41747  -3.42520  1.33588
C    0.04361  -2.07937  1.85633
O    0.90511  -1.16194  1.99052
H    0.79525  -3.30522  0.30877
H    -0.41041  -4.14186  1.32619
H    1.24628  -3.83572  1.92807
N    -1.24884  -1.85282  2.17285
C    -1.83609  -0.55200  2.54426
C    -1.43072  -0.19325  4.00136
O    -0.30410  0.35703  4.18703
H    -1.88182  -2.64467  2.07925
H    -1.35547  0.21554  1.91935
C    -3.34066  -0.61038  2.19481
C    -4.11336  0.67771  2.22024
N    -5.31887  0.79027  1.53135
C    -3.92796  1.89442  2.82641
C    -5.84560  2.00799  1.70348
N    -5.00727  2.68800  2.48731
H    -3.85833  -1.35834  2.82237
H    -3.39681  -1.00987  1.16960
H    -5.76114  0.06491  0.96766
H    -3.13733  2.26432  3.46564
H    -6.77743  2.37237  1.28139
H    -5.15569  3.65233  2.78454
N    -2.24617  -0.48789  5.00064
C    -1.95727  -0.26645  6.42401
H    -3.12263  -0.95648  4.78469
H    -1.26027  0.56868  6.53007
H    -1.52096  -1.17147  6.86703
H    -2.89317  -0.03481  6.94206
Sr    1.89063  0.36819  3.36687
