31
Energy: -106813.413142 eV PBE+vdW (tier 2 basis)
C    -2.20395  4.25254  0.76617
C    -1.26479  3.10873  0.91323
O    -0.05562  3.28636  1.23029
H    -3.22816  3.96555  0.51070
H    -1.81298  4.87696  -0.05576
H    -2.19578  4.89578  1.65596
N    -1.68516  1.82562  0.65476
C    -2.83514  1.25799  1.35602
C    -2.32364  0.76222  2.75440
O    -1.17886  1.13780  3.16050
H    -0.89167  1.18363  0.61537
H    -3.51687  2.08927  1.59693
C    -3.67316  0.28281  0.48269
C    -2.98418  -0.83148  -0.24986
N    -2.67118  -0.75579  -1.60615
C    -2.67602  -2.11873  0.11905
C    -2.20684  -1.93066  -2.04737
N    -2.19864  -2.76317  -1.00278
H    -4.19548  0.90673  -0.25642
H    -4.48245  -0.15174  1.08648
H    -2.82291  0.04947  -2.21154
H    -2.79403  -2.63588  1.06327
H    -1.90377  -2.16530  -3.06315
H    -1.91349  -3.74168  -1.05088
N    -3.12414  0.02502  3.50264
C    -2.83206  -0.41256  4.87623
H    -4.05566  -0.18310  3.15107
H    -1.78885  -0.73315  4.95111
H    -3.48861  -1.25283  5.11929
H    -3.02235  0.40383  5.58500
Sr    0.76843  2.46875  3.25473
