31
Energy: -106813.291421 eV PBE+vdW (tier 2 basis)
C    -0.21857  0.06743  0.54768
C    -0.51456  0.23801  2.00442
O    0.29679  0.85879  2.74267
H    -1.10031  0.21089  -0.08617
H    0.18015  -0.94012  0.34707
H    0.54927  0.79254  0.25729
N    -1.68132  -0.22773  2.56857
C    -2.14471  -1.62416  2.46276
C    -1.01482  -2.55487  3.02257
O    0.14067  -2.06737  3.25133
H    -1.77483  0.12961  3.52160
H    -2.98207  -1.69980  3.17311
C    -2.68885  -2.03773  1.06740
C    -4.04038  -1.48972  0.71617
N    -4.38007  -0.13934  0.66423
C    -5.16244  -2.16306  0.30111
C    -5.64402  0.00676  0.24117
N    -6.12424  -1.21766  0.01680
H    -2.77803  -3.12962  1.03098
H    -1.96519  -1.78827  0.28150
H    -3.78185  0.64161  0.92088
H    -5.34522  -3.22283  0.16748
H    -6.17610  0.94349  0.10891
H    -7.06663  -1.41376  -0.32272
N    -1.27290  -3.82020  3.30569
C    -2.53236  -4.57153  3.24166
H    -0.46770  -4.34559  3.65235
H    -2.57167  -5.18452  2.33147
H    -3.39684  -3.90237  3.28754
H    -2.57439  -5.24057  4.10834
Sr    1.76422  -0.50783  3.94776
