31
Energy: -106813.477847 eV PBE+vdW (tier 2 basis)
C    -0.47059  -1.16096  -0.88287
C    -0.02260  -0.43408  0.34218
O    1.15715  0.00798  0.42378
H    0.15099  -0.83549  -1.72522
H    -1.52420  -0.98220  -1.11814
H    -0.31217  -2.24577  -0.76896
N    -0.87746  -0.18585  1.38564
C    -1.66341  -1.20522  2.09669
C    -0.64667  -2.20406  2.77010
O    0.59078  -2.11906  2.49943
H    -0.45745  0.47900  2.03759
H    -2.15205  -0.66229  2.92097
C    -2.77610  -1.91662  1.29347
C    -3.88770  -1.02806  0.80791
N    -5.06903  -1.56498  0.29999
C    -4.05227  0.33291  0.74834
C    -5.91471  -0.58766  -0.04843
N    -5.30689  0.56855  0.22084
H    -3.22083  -2.67719  1.95351
H    -2.35273  -2.48345  0.45207
H    -5.28981  -2.55475  0.20062
H    -3.39549  1.14538  1.02903
H    -6.90782  -0.71500  -0.46839
H    -5.72129  1.48664  0.05970
N    -1.11639  -3.07760  3.64105
C    -0.30648  -4.05218  4.38780
H    -2.10707  -3.04713  3.87188
H    0.15648  -3.57356  5.26056
H    0.46654  -4.46992  3.73634
H    -0.96349  -4.85672  4.73038
Sr    2.62944  -1.15311  1.81357
