31
Energy: -106813.461665 eV PBE+vdW (tier 2 basis)
C    -0.81385  -0.08154  -0.21166
C    -0.32564  -0.18547  1.18943
O    0.85275  -0.55625  1.45049
H    -0.14731  0.53982  -0.82434
H    -1.84843  0.26155  -0.30396
H    -0.75376  -1.09595  -0.64225
N    -1.17156  0.07462  2.24141
C    -1.86738  1.35578  2.34281
C    -0.85398  2.38348  2.95919
O    0.37858  2.07632  3.01613
H    -0.75310  -0.21751  3.12630
H    -2.03319  1.72235  1.31718
C    -3.28540  1.24301  2.97011
C    -3.46501  0.50739  4.26612
N    -3.92620  -0.80693  4.32317
C    -3.40539  0.92467  5.57404
C    -4.14648  -1.17303  5.59133
N    -3.82450  -0.12858  6.35946
H    -3.91726  0.75844  2.21221
H    -3.72145  2.24588  3.08139
H    -4.13281  -1.40407  3.52394
H    -3.14376  1.88386  6.00363
H    -4.52461  -2.13262  5.93042
H    -3.91596  -0.11361  7.37567
N    -1.29669  3.56885  3.33739
C    -0.45095  4.67093  3.82074
H    -2.28218  3.78093  3.20195
H    0.05711  5.15968  2.97927
H    0.28977  4.28971  4.53014
H    -1.09010  5.40321  4.32197
Sr    2.35592  0.90809  2.47173
