31
Energy: -106814.171578 eV PBE+vdW (tier 2 basis)
C    1.94186  -0.86293  1.35669
C    1.08071  -0.91053  2.57677
O    1.57948  -1.16799  3.70974
H    2.75060  -0.13441  1.50638
H    1.40234  -0.61052  0.43787
H    2.42516  -1.84312  1.23115
N    -0.24081  -0.67426  2.41429
C    -1.34964  -0.74048  3.38809
C    -1.20352  0.28406  4.54050
O    -0.27763  0.17125  5.40219
H    -0.50972  -0.41666  1.46866
H    -2.23395  -0.44181  2.81315
C    -1.61227  -2.15592  3.96175
C    -2.27006  -3.12348  3.01686
N    -2.67712  -4.38366  3.44940
C    -2.63271  -3.06344  1.69458
C    -3.25959  -5.05893  2.45060
N    -3.23690  -4.26534  1.37958
H    -2.26254  -2.04340  4.84455
H    -0.66789  -2.58494  4.32804
H    -2.57483  -4.75977  4.39043
H    -2.52561  -2.28486  0.95104
H    -3.67383  -6.06103  2.50558
H    -3.61768  -4.51919  0.46771
N    -2.08628  1.26619  4.63347
C    -3.22784  1.59813  3.76532
H    -1.94893  1.87285  5.44443
H    -2.91193  1.72386  2.72313
H    -3.63700  2.55361  4.10621
H    -4.02013  0.84337  3.84429
Sr    1.91223  -0.39264  5.84856
