31
Energy: -106813.515224 eV PBE+vdW (tier 2 basis)
C    -2.02224  3.14296  1.02527
C    -1.05540  2.13774  1.54314
O    -0.16572  2.44990  2.37925
H    -2.68666  2.76141  0.24506
H    -1.43631  3.97980  0.61220
H    -2.61476  3.57452  1.84468
N    -1.08865  0.83864  1.08769
C    -2.31177  0.03182  1.15712
C    -2.63572  -0.19864  2.67243
O    -1.77396  0.14981  3.54529
H    -0.28146  0.31955  1.44094
H    -3.14118  0.60342  0.71717
C    -2.12424  -1.29927  0.37465
C    -2.22722  -1.21099  -1.11806
N    -1.27870  -0.63189  -1.95816
C    -3.17891  -1.73950  -1.95484
C    -1.62871  -0.79880  -3.24071
N    -2.78347  -1.46820  -3.24673
H    -2.87985  -2.02398  0.69998
H    -1.15777  -1.74704  0.65800
H    -0.42358  -0.16351  -1.66993
H    -4.08005  -2.30142  -1.73977
H    -1.07564  -0.45834  -4.11034
H    -3.28245  -1.74854  -4.09171
N    -3.79306  -0.71971  3.03982
C    -4.95013  -1.11305  2.22767
H    -3.89565  -0.85793  4.04744
H    -4.97639  -2.20312  2.09823
H    -4.93604  -0.61694  1.25283
H    -5.86073  -0.80618  2.75424
Sr    -0.14957  1.52446  4.53917
