31
Energy: -106813.168064 eV PBE+vdW (tier 2 basis)
C    0.32809  -0.92493  0.77924
C    -0.00458  -0.24006  2.06118
O    0.83432  -0.32155  3.05072
H    1.25985  -0.50667  0.37239
H    -0.45254  -0.83421  0.01967
H    0.50885  -1.99141  0.97253
N    -1.11275  0.44819  2.23582
C    -2.19682  0.82171  1.31401
C    -2.66452  2.18674  1.91268
O    -2.60908  2.30044  3.14144
H    -1.29008  0.93054  3.14067
H    -1.81368  0.92438  0.29095
C    -3.33849  -0.24456  1.40325
C    -4.64342  0.09973  0.75505
N    -5.01967  -0.29977  -0.52508
C    -5.73146  0.76769  1.26070
C    -6.27276  0.09348  -0.78907
N    -6.70963  0.74860  0.29003
H    -3.53886  -0.41514  2.47004
H    -2.96616  -1.19784  1.00080
H    -4.46526  -0.85941  -1.16927
H    -5.88641  1.23119  2.22766
H    -6.82978  -0.09455  -1.70095
H    -7.64320  1.14892  0.37960
N    -3.11314  3.11155  1.05446
C    -3.58075  4.43706  1.47332
H    -3.02218  2.93840  0.05815
H    -2.84826  5.20504  1.19568
H    -3.70747  4.43605  2.55908
H    -4.53649  4.66508  0.98846
Sr    2.41790  -0.49569  4.56125
