31
Energy: -106813.618768 eV PBE+vdW (tier 2 basis)
C    -1.59887  3.53368  0.75592
C    -0.93340  2.54625  1.64987
O    -0.04492  2.90386  2.47257
H    -2.14863  4.28675  1.33840
H    -2.26090  3.08292  0.01152
H    -0.80271  4.08481  0.23093
N    -1.24712  1.21437  1.57245
C    -2.62458  0.74030  1.66722
C    -3.08213  0.92749  3.16461
O    -2.27949  1.45398  3.99696
H    -0.59734  0.65026  2.12390
H    -3.26079  1.40174  1.06066
C    -2.75850  -0.71960  1.15875
C    -2.56865  -0.90980  -0.32145
N    -1.67072  -1.82826  -0.85616
C    -3.23461  -0.38347  -1.40165
C    -1.77940  -1.86924  -2.19011
N    -2.72384  -0.98933  -2.52974
H    -3.75083  -1.10999  1.42773
H    -2.04604  -1.35675  1.70408
H    -1.03802  -2.42884  -0.33083
H    -4.03698  0.34143  -1.46460
H    -1.20982  -2.50042  -2.86497
H    -3.02784  -0.81367  -3.48775
N    -4.30225  0.55856  3.50563
C    -4.88011  0.68853  4.85242
H    -4.91817  0.18971  2.78485
H    -5.20761  1.72094  5.02981
H    -4.14000  0.39723  5.60385
H    -5.74533  0.02326  4.92170
Sr    -0.46238  2.74029  4.76644
