31
Energy: -106814.400656 eV PBE+vdW (tier 2 basis)
C    -0.55021  -3.84086  2.09824
C    -0.68130  -2.39691  2.44444
O    0.23044  -1.56568  2.16229
H    -1.37374  -4.46100  2.46754
H    0.40085  -4.23156  2.48361
H    -0.50454  -3.92929  1.00162
N    -1.81143  -1.98778  3.05869
C    -2.19572  -0.59005  3.32897
C    -1.36484  -0.04005  4.52197
O    -0.20632  0.41438  4.28078
H    -2.48570  -2.71404  3.29178
H    -1.87927  0.01062  2.46302
C    -3.73730  -0.54858  3.42938
C    -4.39832  0.80024  3.43536
N    -5.75822  0.92090  3.15813
C    -3.96370  2.07826  3.67930
C    -6.13883  2.20171  3.22683
N    -5.05568  2.91407  3.54137
H    -4.08685  -1.12974  4.30191
H    -4.11252  -1.09794  2.55093
H    -6.39696  0.15988  2.92918
H    -2.98793  2.46689  3.93904
H    -7.13985  2.58646  3.05575
H    -5.05028  3.92720  3.65883
N    -1.86651  -0.07911  5.74527
C    -1.16253  0.34777  6.96228
H    -2.79048  -0.48361  5.87494
H    -0.62293  -0.49947  7.40578
H    -1.89881  0.71510  7.68368
H    -0.45677  1.14569  6.71677
Sr    1.65327  0.05849  2.90031
