31
Energy: -106813.714357 eV PBE+vdW (tier 2 basis)
C    -1.65908  3.48766  0.64573
C    -1.00482  2.55549  1.60461
O    -0.16102  2.96896  2.44752
H    -2.24684  4.25057  1.17598
H    -2.28300  2.99027  -0.10192
H    -0.85728  4.03637  0.12677
N    -1.27995  1.21228  1.56769
C    -2.64913  0.70752  1.63007
C    -3.15979  0.92732  3.10500
O    -2.40421  1.51246  3.94275
H    -0.64349  0.69255  2.17568
H    -3.27865  1.33561  0.98261
C    -2.73587  -0.76787  1.15037
C    -2.51757  -0.98465  -0.32107
N    -1.39079  -1.60427  -0.85327
C    -3.33995  -0.74412  -1.39520
C    -1.51412  -1.74261  -2.17949
N    -2.69345  -1.21558  -2.51718
H    -3.72470  -1.17510  1.40243
H    -2.02387  -1.38010  1.72407
H    -0.59309  -1.95854  -0.32963
H    -4.33011  -0.30795  -1.45247
H    -0.79534  -2.20266  -2.85023
H    -3.06244  -1.19364  -3.46834
N    -4.37606  0.52754  3.42384
C    -4.99745  0.69276  4.74723
H    -4.95547  0.10594  2.70206
H    -4.29472  0.38967  5.52987
H    -5.88422  0.05483  4.79317
H    -5.29954  1.73672  4.89958
Sr    -0.65999  2.88257  4.73077
