31
Energy: -106814.314000 eV PBE+vdW (tier 2 basis)
C    1.46748  1.61131  0.92444
C    0.85552  0.51030  1.72476
O    1.55914  -0.19435  2.50671
H    1.99719  2.30221  1.59445
H    0.74898  2.17641  0.32171
H    2.22842  1.17708  0.25836
N    -0.46761  0.28948  1.58113
C    -1.31286  -0.78709  2.14077
C    -1.35552  -0.74041  3.69067
O    -0.38265  -1.15699  4.38840
H    -0.94529  0.92559  0.94691
H    -2.32006  -0.54654  1.77749
C    -0.93321  -2.20040  1.58943
C    -2.08345  -3.14435  1.39761
N    -2.70638  -3.34180  0.16608
C    -2.71693  -4.00213  2.26319
C    -3.66256  -4.27312  0.26819
N    -3.67998  -4.67570  1.54110
H    -0.19757  -2.67141  2.25266
H    -0.42582  -2.05824  0.62571
H    -2.45797  -2.89476  -0.71496
H    -2.54932  -4.20432  3.31370
H    -4.29664  -4.63765  -0.53431
H    -4.30639  -5.39304  1.90745
N    -2.45830  -0.25438  4.24003
C    -2.69391  -0.10434  5.68043
H    -3.19172  0.08718  3.62242
H    -3.75996  -0.25283  5.87960
H    -2.41163  0.90526  6.00774
H    -2.11027  -0.84886  6.22797
Sr    1.93725  -1.03308  4.58918
