31
Energy: -106814.429933 eV PBE+vdW (tier 2 basis)
C    0.66445  1.04692  0.45096
C    0.31606  0.10470  1.55704
O    1.22246  -0.45740  2.23772
H    1.22220  1.89955  0.86486
H    -0.20188  1.42923  -0.09896
H    1.34553  0.54112  -0.24799
N    -0.99390  -0.11905  1.79836
C    -1.63147  -1.01818  2.78100
C    -1.25757  -0.67965  4.24714
O    -0.10914  -0.94274  4.71371
H    -1.63609  0.41303  1.21659
H    -2.70500  -0.81702  2.67047
C    -1.39815  -2.53208  2.47944
C    -2.15283  -3.07132  1.30073
N    -3.39094  -3.70362  1.40712
C    -1.83247  -3.12831  -0.03343
C    -3.80366  -4.12995  0.20683
N    -2.86504  -3.77951  -0.67533
H    -1.67322  -3.10823  3.37509
H    -0.32790  -2.71045  2.31940
H    -3.90803  -3.88031  2.26651
H    -0.95428  -2.78948  -0.56850
H    -4.72300  -4.66695  -0.00596
H    -2.90859  -3.98846  -1.67317
N    -2.21116  -0.14348  4.99289
C    -2.08005  0.21108  6.41128
H    -3.10359  0.07208  4.55389
H    -1.32231  -0.42238  6.87928
H    -3.04569  0.05177  6.90181
H    -1.80037  1.26797  6.51331
Sr    2.15961  -0.89088  4.28892
