31
Energy: -106814.440980 eV PBE+vdW (tier 2 basis)
C    -0.12453  1.55486  0.57670
C    -0.17298  0.52642  1.65959
O    0.88201  0.16687  2.25851
H    -1.09132  1.74549  0.09913
H    0.60184  1.23805  -0.18504
H    0.25455  2.49975  0.99245
N    -1.37842  0.00253  1.97024
C    -1.72693  -1.04530  2.95067
C    -1.34005  -0.66890  4.40423
O    -0.13273  -0.67616  4.78905
H    -2.16291  0.39010  1.45226
H    -2.82308  -1.09256  2.91344
C    -1.17691  -2.45676  2.57362
C    -1.86106  -3.12139  1.41610
N    -2.92432  -4.01166  1.56128
C    -1.60887  -3.07817  0.06692
C    -3.29890  -4.49195  0.36893
N    -2.50828  -3.92566  -0.54552
H    -1.25785  -3.10535  3.45835
H    -0.10627  -2.38162  2.34799
H    -3.34301  -4.31617  2.43827
H    -0.85574  -2.54404  -0.49865
H    -4.08969  -5.21233  0.18312
H    -2.55927  -4.11782  -1.54638
N    -2.33618  -0.38189  5.22759
C    -2.19018  -0.04226  6.64847
H    -3.28223  -0.36305  4.85322
H    -2.12420  1.04664  6.77339
H    -1.29205  -0.51890  7.04966
H    -3.07084  -0.40739  7.18637
Sr    2.03140  -0.09836  4.22906
