31
Energy: -106814.379898 eV PBE+vdW (tier 2 basis)
C    -0.63624  -1.33126  0.00949
C    -0.94550  -0.09554  0.79054
O    -0.26753  0.20959  1.81434
H    -0.64063  -2.19462  0.68972
H    0.38481  -1.25850  -0.39256
H    -1.32608  -1.51901  -0.81996
N    -1.96795  0.67550  0.36119
C    -2.52592  1.91240  0.94352
C    -1.49108  3.06337  1.03338
O    -0.55726  3.04742  1.88978
H    -2.41963  0.35567  -0.49185
H    -3.29102  2.22634  0.22157
C    -3.23217  1.68850  2.31772
C    -4.54597  0.96816  2.25131
N    -5.77589  1.62076  2.17684
C    -4.85036  -0.36999  2.30074
C    -6.77822  0.73302  2.18637
N    -6.22449  -0.47966  2.25595
H    -3.38514  2.67003  2.79006
H    -2.56289  1.13089  2.98403
H    -5.92690  2.62787  2.17005
H    -4.21323  -1.24073  2.39159
H    -7.83980  0.95833  2.15326
H    -6.75394  -1.35125  2.29155
N    -1.66040  4.07928  0.20152
C    -0.82223  5.28378  0.15518
H    -2.40928  4.02206  -0.48505
H    -1.44258  6.12784  -0.16221
H    -0.00640  5.15128  -0.56767
H    -0.41142  5.48390  1.14826
Sr    1.04133  1.73855  2.92033
