31
Energy: -106813.291588 eV PBE+vdW (tier 2 basis)
C    -0.79815  0.27719  -0.39285
C    -0.72589  -0.29920  0.97561
O    0.22927  -1.04581  1.32779
H    0.11833  0.82931  -0.64150
H    -1.67972  0.89951  -0.57169
H    -0.83175  -0.57243  -1.09598
N    -1.73244  -0.06856  1.88432
C    -2.12486  1.29001  2.25212
C    -1.00759  1.85707  3.19040
O    -0.03939  1.09485  3.52673
H    -1.61235  -0.66170  2.70761
H    -2.09010  1.91088  1.34429
C    -3.59757  1.37054  2.76492
C    -4.12531  0.30012  3.67279
N    -4.79682  -0.82874  3.20320
C    -4.25641  0.25376  5.03991
C    -5.31861  -1.52186  4.22212
N    -4.98745  -0.87536  5.34349
H    -4.23782  1.40006  1.87191
H    -3.75517  2.33358  3.26375
H    -4.93923  -1.07621  2.22534
H    -3.93231  0.94567  5.80798
H    -5.90806  -2.43079  4.15062
H    -5.27476  -1.16411  6.27909
N    -1.02784  3.12160  3.57679
C    -1.93432  4.21681  3.20291
H    -0.25422  3.38510  4.19032
H    -2.68755  4.38557  3.98341
H    -2.42242  4.02197  2.24335
H    -1.33741  5.12981  3.10050
Sr    1.67540  -0.45381  3.06846
