31
Energy: -106813.960823 eV PBE+vdW (tier 2 basis)
C    -0.28688  1.31981  0.32177
C    -0.25869  0.89686  1.75127
O    0.72628  1.16442  2.49833
H    -1.19360  1.01565  -0.21150
H    0.58945  0.91007  -0.19959
H    -0.19302  2.41484  0.27656
N    -1.32018  0.21998  2.24379
C    -1.47090  -0.19070  3.64583
C    -0.45356  -1.31772  4.00165
O    0.64576  -0.94401  4.52244
H    -2.06053  -0.01662  1.58802
H    -1.12701  0.65179  4.26263
C    -2.95508  -0.48727  4.00086
C    -3.85048  0.70406  4.18486
N    -4.08803  1.30846  5.41809
C    -4.66950  1.35924  3.29823
C    -5.00510  2.27678  5.29559
N    -5.35820  2.31908  4.00884
H    -2.97077  -1.08566  4.92356
H    -3.41087  -1.12743  3.23454
H    -3.68981  1.03109  6.31323
H    -4.84636  1.20181  2.24114
H    -5.39580  2.90030  6.09376
H    -6.05796  2.95520  3.62508
N    -0.66957  -2.60370  3.77160
C    -1.78104  -3.29965  3.10988
H    0.08772  -3.20550  4.10219
H    -1.39600  -4.24901  2.72426
H    -2.15798  -2.72511  2.25814
H    -2.59038  -3.52225  3.81639
Sr    2.33908  0.56621  4.03358
