31
Energy: -106814.202118 eV PBE+vdW (tier 2 basis)
C    -0.84957  2.08355  2.75232
C    -0.82693  0.59060  2.69877
O    -0.65230  -0.01501  1.60256
H    -1.05772  2.49133  3.74707
H    -1.60042  2.45610  2.04126
H    0.12101  2.47083  2.40955
N    -0.99858  -0.07925  3.86004
C    -1.05647  -1.53378  4.10505
C    0.22730  -2.26463  3.64301
O    0.42161  -2.52033  2.41384
H    -1.10101  0.50606  4.68504
H    -1.10650  -1.62365  5.19603
C    -2.32707  -2.21767  3.51211
C    -3.60818  -1.90846  4.22893
N    -4.16999  -2.74772  5.18984
C    -4.49253  -0.86554  4.10022
C    -5.33603  -2.25114  5.62161
N    -5.53700  -1.10426  4.96878
H    -2.16708  -3.30575  3.51752
H    -2.43815  -1.93317  2.45874
H    -3.79938  -3.64379  5.50117
H    -4.48058  0.00085  3.45107
H    -5.99653  -2.70100  6.35656
H    -6.35873  -0.51154  5.08974
N    1.10816  -2.65109  4.55323
C    1.11485  -2.45506  6.01117
H    1.89698  -3.17683  4.17105
H    0.83446  -1.43063  6.27765
H    2.13667  -2.62264  6.36530
H    0.45848  -3.17924  6.51051
Sr    0.45421  -1.56512  0.31324
