31
Energy: -106813.403496 eV PBE+vdW (tier 2 basis)
C    -1.16411  3.52091  1.53219
C    -0.60400  2.30461  2.17724
O    -0.06493  2.35384  3.31832
H    -0.31301  4.19907  1.34677
H    -1.83403  4.06141  2.21299
H    -1.65672  3.33469  0.57384
N    -0.61378  1.09899  1.52579
C    -1.83034  0.50084  0.97340
C    -2.80128  0.26066  2.17504
O    -2.31679  0.24629  3.35344
H    -0.02122  0.41631  2.00219
H    -2.28874  1.20823  0.26996
C    -1.40310  -0.81104  0.23177
C    -2.27954  -1.37919  -0.84004
N    -2.33016  -0.88325  -2.14291
C    -3.04336  -2.51966  -0.85712
C    -3.08173  -1.67813  -2.91560
N    -3.52434  -2.67153  -2.14073
H    -1.23005  -1.60498  0.97192
H    -0.42024  -0.59326  -0.21462
H    -1.82115  -0.07891  -2.50537
H    -3.25300  -3.24377  -0.07881
H    -3.28312  -1.54541  -3.97432
H    -4.10644  -3.44199  -2.47128
N    -4.10088  0.09653  1.98543
C    -4.90234  0.19258  0.76266
H    -4.63176  -0.07256  2.84273
H    -5.31414  -0.78983  0.50356
H    -4.30539  0.56896  -0.07129
H    -5.73386  0.88522  0.93948
Sr    -0.96547  1.13334  5.09136
