20
Energy: -99615.6109741 eV PBE+vdW (tier 2 basis)
C    -0.747233  2.024898  1.783342
C    -0.660150  0.831806  0.892003
O    0.004940  0.871006  -0.188876
H    -1.255059  2.830552  1.232485
H    0.261698  2.387466  2.018289
H    -1.291708  1.835963  2.714189
N    -1.313347  -0.284684  1.247701
C    -1.486147  -1.472535  0.409386
C    -0.254795  -2.385645  0.350241
O    0.763234  -2.025263  -0.320494
H    -1.834260  -0.256512  2.120340
H    -2.362471  -2.013272  0.784549
H    -1.717144  -1.159615  -0.619362
N    -0.313307  -3.542637  0.986112
C    0.740083  -4.558837  1.016475
H    -1.170314  -3.760113  1.490538
H    1.568422  -4.240292  0.380639
H    0.335291  -5.509883  0.650703
H    1.092033  -4.692133  2.046801
Sr    1.557234  -0.193267  -1.460058
