20
Energy: -99614.1335863 eV PBE+vdW (tier 2 basis)
C    0.008380  0.365820  0.175935
C    -0.168363  0.467224  1.651370
O    0.898153  0.576597  2.405783
H    0.544095  1.252943  -0.190022
H    -0.938803  0.279058  -0.362699
H    0.630637  -0.509259  -0.058486
N    -1.333059  0.452863  2.235249
C    -2.680431  0.345981  1.694362
C    -3.557795  0.399883  2.975083
O    -2.970408  0.510633  4.064505
H    -1.460765  0.525363  3.285728
H    -2.915820  1.180191  1.018480
H    -2.828706  -0.599082  1.153046
N    -4.881545  0.324666  2.830432
C    -5.624161  0.193251  1.576666
H    -5.407580  0.364297  3.700584
H    -5.371393  -0.737520  1.051759
H    -5.454678  1.051982  0.913663
H    -6.690509  0.162153  1.815137
Sr    2.613753  0.759955  3.681423
