20
Energy: -99614.9330186 eV PBE+vdW (tier 2 basis)
C    -0.578013  3.140668  1.835267
C    -0.229383  1.715987  1.560636
O    0.897823  1.239914  1.897449
H    0.326662  3.744237  1.687492
H    -0.875037  3.271913  2.887628
H    -1.377714  3.520219  1.191604
N    -1.121885  0.898095  0.946055
C    -2.515293  0.843656  1.341667
C    -2.632938  0.145693  2.714583
O    -1.575812  -0.170955  3.356632
H    -0.724660  0.009561  0.639822
H    -2.944315  1.853751  1.405712
H    -3.098219  0.304768  0.582856
N    -3.834269  -0.106454  3.196318
C    -5.124295  0.195680  2.557983
H    -3.858374  -0.573509  4.102811
H    -5.198610  1.259618  2.303671
H    -5.917561  -0.042419  3.271104
H    -5.269827  -0.416107  1.658599
Sr    0.726722  -0.293314  3.632107
