20
Energy: -99614.1955247 eV PBE+vdW (tier 2 basis)
C    -1.246475  -0.246102  -0.407341
C    -0.769077  0.485313  0.799231
O    0.003141  1.532037  0.634767
H    -1.813284  0.441071  -1.051175
H    -1.879681  -1.103371  -0.164447
H    -0.382107  -0.597631  -0.987994
N    -1.080757  0.137124  2.015586
C    -1.900239  -0.953353  2.524034
C    -1.816143  -0.747268  4.065146
O    -1.137419  0.208107  4.475505
H    -0.741595  0.655066  2.875817
H    -2.938755  -0.875623  2.173115
H    -1.493588  -1.932689  2.235596
N    -2.482020  -1.616529  4.824245
C    -2.509671  -1.569515  6.286786
H    -3.003380  -2.358980  4.366806
H    -1.906994  -0.720823  6.619161
H    -2.094844  -2.496642  6.699415
H    -3.540724  -1.445965  6.638262
Sr    1.265611  3.248773  0.388484
