20
Energy: -99613.9885289 eV PBE+vdW (tier 2 basis)
C    0.088608  0.278017  0.226835
C    -0.053070  0.435366  1.712521
O    1.091661  0.555139  2.380810
H    0.701260  -0.606544  0.005461
H    0.613843  1.149216  -0.188210
H    -0.867447  0.173254  -0.293420
N    -1.156124  0.464676  2.378753
C    -2.464480  0.345104  1.764486
C    -3.428594  0.438849  2.942050
O    -2.858657  0.588659  4.093153
H    -1.845777  0.594863  3.794690
H    -2.689648  1.153293  1.048876
H    -2.620555  -0.615713  1.246307
N    -4.732267  0.379156  2.855121
C    -5.536440  0.212233  1.643052
H    -5.237189  0.457365  3.739755
H    -4.895815  0.151124  0.759926
H    -6.213617  1.067472  1.535041
H    -6.127470  -0.707808  1.721152
Sr    2.918778  0.741278  3.416643
