20
Energy: -99614.1932657 eV PBE+vdW (tier 2 basis)
C    -0.006008  -0.375412  0.023700
C    -0.413402  0.559680  1.112879
O    -0.281386  1.851610  0.949551
H    -0.858587  -0.995746  -0.288691
H    0.774094  -1.063172  0.381558
H    0.372918  0.170810  -0.843435
N    -0.903701  0.123348  2.239843
C    -1.155671  -1.237435  2.684213
C    -1.741042  -1.025417  4.110981
O    -1.850372  0.144119  4.512123
H    -1.206154  0.746684  3.040039
H    -1.877854  -1.748376  2.030958
H    -0.229058  -1.828662  2.719401
N    -2.079739  -2.120607  4.790492
C    -2.642425  -2.100974  6.141338
H    -1.940220  -3.025944  4.351058
H    -1.982009  -2.639933  6.830805
H    -3.631073  -2.574618  6.142127
H    -2.735904  -1.061269  6.464230
Sr    -0.075284  3.974922  0.707043
