20
Energy: -99614.0367855 eV PBE+vdW (tier 2 basis)
C    -1.759701  0.412747  -0.106444
C    -1.002872  0.827720  1.121194
O    -0.101308  1.788700  0.933233
H    -2.497537  -0.372172  0.081160
H    -1.056543  0.050188  -0.868873
H    -2.280329  1.281905  -0.531233
N    -1.147153  0.346031  2.307995
C    -2.094115  -0.701092  2.637731
C    -1.892918  -0.913232  4.136685
O    -0.994791  -0.157080  4.672463
H    -0.689228  0.387528  3.817232
H    -3.144059  -0.419498  2.453089
H    -1.900402  -1.650687  2.111874
N    -2.570392  -1.787848  4.833191
C    -2.424172  -2.037156  6.272679
H    -3.260721  -2.343808  4.331499
H    -3.379852  -1.841209  6.772236
H    -1.653372  -1.378349  6.677976
H    -2.138584  -3.083408  6.430820
Sr    1.313050  3.311723  0.579493
