37
Energy: -613504.693583 eV PBE+vdW (tier 2 basis)
C    0.872501  -1.012285  2.073866
C    0.169091  0.256493  2.412482
O    -0.084096  1.099843  1.480606
H    0.956373  -1.687984  2.930942
H    0.322163  -1.515697  1.267269
H    1.873734  -0.784011  1.682793
N    -0.193806  0.473288  3.675277
C    -1.061987  1.552497  4.130511
C    -0.311295  2.896826  4.094850
O    -0.573555  3.707489  3.129240
H    -0.065181  -0.283851  4.362210
H    -1.849478  1.683738  3.373506
C    -1.780138  1.175490  5.487709
C    -1.318835  -0.086861  6.143993
C    -0.725705  -0.206590  7.396000
C    -1.512923  -1.434352  5.656750
N    -0.532749  -1.524922  7.688611
C    -0.994910  -2.311832  6.650283
C    -2.106384  -1.989770  4.503563
C    -1.022534  -3.700603  6.514128
C    -2.139280  -3.372674  4.366214
C    -1.597360  -4.216571  5.354938
H    -2.847596  1.088392  5.242039
H    -1.706053  2.020409  6.182849
H    -0.470964  0.560990  8.119780
H    -0.145245  -1.874863  8.558139
H    -2.567937  -1.355262  3.744616
H    -0.625937  -4.358418  7.286568
H    -2.610548  -3.817081  3.490808
H    -1.644852  -5.295793  5.219445
N    0.586432  3.265701  4.987398
C    1.087296  2.558970  6.165081
H    0.978585  4.194249  4.818361
H    2.167326  2.729478  6.232945
H    0.611996  2.951571  7.073460
H    0.899531  1.485200  6.087952
Pb    -0.747691  3.174554  0.946597
