37
Energy: -613504.414128 eV PBE+vdW (tier 2 basis)
C    -0.948018  0.811758  -0.482251
C    -0.585251  0.424630  0.906800
O    0.194847  1.169781  1.592712
H    -0.030020  1.147372  -0.985529
H    -1.399600  -0.002867  -1.055186
H    -1.623644  1.680623  -0.470959
N    -1.059078  -0.710274  1.465911
C    -2.466420  -1.098115  1.414734
C    -3.247920  -0.125009  2.317839
O    -2.654432  0.755098  3.044259
H    -0.583126  -0.975535  2.330977
H    -2.833833  -0.978175  0.385744
C    -2.616308  -2.597940  1.818565
C    -4.012818  -3.115958  1.765554
C    -4.707390  -3.697812  2.824249
C    -4.895704  -3.150702  0.627062
N    -5.945599  -4.077014  2.403211
C    -6.108246  -3.756047  1.064595
C    -4.781895  -2.762830  -0.724324
C    -7.194082  -3.962505  0.216290
C    -5.866424  -2.959761  -1.574048
C    -7.055833  -3.548174  -1.109950
H    -2.201879  -2.740748  2.828317
H    -1.964189  -3.151024  1.123771
H    -4.382122  -3.886486  3.842488
H    -6.627407  -4.566647  2.973085
H    -3.850073  -2.359338  -1.123518
H    -8.110630  -4.437715  0.563962
H    -5.788647  -2.675592  -2.622159
H    -7.881992  -3.699914  -1.802604
N    -4.560024  -0.237586  2.344358
C    -5.454249  0.581789  3.165558
H    -4.963704  -0.998039  1.789462
H    -6.483092  0.280933  2.953867
H    -5.332338  1.642572  2.917566
H    -5.242861  0.434568  4.231455
Pb    -0.748683  1.897251  3.550188
