37
Energy: -613504.882309 eV PBE+vdW (tier 2 basis)
C    -0.606394  -0.967718  -0.232811
C    -0.785926  0.061518  0.830462
O    -0.446270  1.271951  0.591649
H    -1.204266  -0.669342  -1.106676
H    -0.908692  -1.972303  0.080441
H    0.442098  -0.982802  -0.558304
N    -1.322207  -0.299115  1.999029
C    -1.802449  0.586548  3.073006
C    -0.642485  0.930368  4.022480
O    0.395470  1.530679  3.554444
H    -1.561381  -1.284234  2.099911
H    -2.082331  1.542316  2.601087
C    -3.073250  -0.060020  3.681510
C    -3.637839  0.633428  4.882232
C    -3.927352  0.025753  6.099763
C    -4.011441  2.016656  5.008902
N    -4.441402  0.957033  6.959285
C    -4.509746  2.186592  6.330971
C    -4.012149  3.125097  4.138672
C    -4.976476  3.413416  6.806529
C    -4.477986  4.349351  4.607197
C    -4.947880  4.492575  5.925755
H    -2.855424  -1.110299  3.935124
H    -3.815857  -0.086378  2.867241
H    -3.847369  -1.017658  6.391181
H    -4.783348  0.757725  7.892966
H    -3.709965  3.027920  3.094228
H    -5.361044  3.524408  7.819690
H    -4.504292  5.209205  3.939551
H    -5.313718  5.462068  6.259724
N    -0.721799  0.616536  5.292524
C    0.296259  0.897352  6.303671
H    -1.644971  0.285126  5.614642
H    0.344698  0.050079  6.995706
H    0.024623  1.801597  6.864537
H    1.267596  1.039452  5.824952
Pb    0.769067  2.777208  1.723567
