37
Energy: -613504.746857 eV PBE+vdW (tier 2 basis)
C    1.818450  -1.229637  1.325401
C    0.855164  -1.009821  2.449823
O    0.987115  -1.686044  3.532504
H    2.837006  -0.996028  1.665324
H    1.599855  -0.628374  0.437021
H    1.804176  -2.293235  1.050999
N    -0.129079  -0.139658  2.263936
C    -1.254325  0.323682  3.098003
C    -1.087449  1.861084  3.290264
O    0.039147  2.348768  3.386195
H    -0.101794  0.323149  1.356885
H    -2.140444  0.141195  2.469864
C    -1.524664  -0.438081  4.410755
C    -0.814940  -0.116209  5.706758
C    -1.426000  -0.353295  6.926864
C    0.525715  0.332287  6.035880
N    -0.558000  -0.121857  7.964553
C    0.650245  0.271126  7.476957
C    1.641246  0.851908  5.304454
C    1.842849  0.573123  8.152505
C    2.834713  1.140394  5.998240
C    2.940232  0.980381  7.399845
H    -1.418797  -1.512219  4.199781
H    -2.596980  -0.296123  4.604656
H    -2.439983  -0.686100  7.127854
H    -0.786176  -0.242812  8.947540
H    1.521361  1.132146  4.255190
H    1.904560  0.505807  9.238877
H    3.678978  1.547312  5.442045
H    3.878570  1.218231  7.897761
N    -2.241964  2.549255  3.360057
C    -2.303058  3.994554  3.569496
H    -3.115527  2.062516  3.185496
H    -2.697439  4.494055  2.676029
H    -1.290413  4.357048  3.764852
H    -2.949181  4.225380  4.424524
Pb    2.160188  -1.653365  5.443211
