37
Energy: -613505.684099 eV PBE+vdW (tier 2 basis)
C    -0.159030  0.837213  0.579245
C    -0.019829  0.581929  2.046468
O    1.126189  0.617583  2.571415
H    0.236626  1.837947  0.357380
H    -1.189347  0.769754  0.214772
H    0.470437  0.121589  0.033834
N    -1.141289  0.328256  2.746917
C    -1.308346  0.102400  4.195925
C    -0.656988  1.217637  5.032605
O    0.536573  1.135328  5.455830
H    -2.001771  0.322175  2.206672
H    -2.390378  0.205444  4.345104
C    -1.005323  -1.334351  4.705065
C    0.381894  -1.934807  4.740045
C    1.026161  -2.333398  5.927828
C    1.098285  -2.614037  3.661101
N    2.071542  -3.156675  5.635542
C    2.160783  -3.354239  4.266634
C    0.909279  -2.719513  2.267477
C    3.051165  -4.142726  3.530121
C    1.779546  -3.515707  1.540001
C    2.843647  -4.208021  2.160317
H    -1.640323  -2.004248  4.104628
H    -1.418797  -1.375960  5.722907
H    0.758682  -2.110792  6.956821
H    2.680036  -3.585506  6.327808
H    0.075691  -2.221303  1.774758
H    3.853923  -4.700365  4.010805
H    1.636649  -3.625950  0.466050
H    3.504782  -4.821243  1.550018
N    -1.386774  2.277314  5.359670
C    -2.781907  2.575892  5.019183
H    -0.892100  2.961218  5.933490
H    -3.472440  1.871584  5.500862
H    -2.935097  2.577443  3.933486
H    -3.009651  3.578402  5.391651
Pb    2.234502  -0.089268  4.464569
