37
Energy: -613505.8884 eV PBE+vdW (tier 2 basis)
C    -3.831770  1.305529  1.578569
C    -2.617700  0.674256  2.191890
O    -1.491321  0.890564  1.667965
H    -4.773185  1.014893  2.056362
H    -3.725648  2.397799  1.632471
H    -3.869143  1.043370  0.513596
N    -2.817670  -0.079919  3.291276
C    -1.888850  -0.862054  4.129994
C    -0.762342  -0.007665  4.735093
O    0.232456  0.427359  4.082951
H    -3.787837  -0.132673  3.587470
H    -2.512426  -1.165093  4.981287
C    -1.419128  -2.211760  3.493322
C    -0.860654  -2.179213  2.107965
C    -1.580796  -2.338699  0.941913
C    0.507114  -1.964095  1.702330
N    -0.760106  -2.193218  -0.151859
C    0.523852  -1.956235  0.261657
C    1.751440  -1.850378  2.392200
C    1.705850  -1.769501  -0.472577
C    2.922107  -1.682620  1.648925
C    2.894685  -1.625646  0.236595
H    -2.300563  -2.867479  3.502229
H    -0.703976  -2.668295  4.194102
H    -2.635588  -2.558480  0.809555
H    -1.054243  -2.302424  -1.117165
H    1.794416  -1.928530  3.478337
H    1.700284  -1.766245  -1.562338
H    3.877800  -1.611466  2.166346
H    3.827728  -1.492345  -0.308414
N    -0.845397  0.237980  6.037177
C    0.150336  1.010891  6.784807
H    -1.639993  -0.129067  6.552121
H    0.213808  2.031867  6.390197
H    1.135472  0.535874  6.708813
H    -0.156271  1.045185  7.833107
Pb    0.811260  0.691534  1.860730
