37
Energy: -613504.20449 eV PBE+vdW (tier 2 basis)
C    -1.052827  -0.253671  -0.612250
C    -0.436006  -0.684007  0.672369
O    0.082505  -1.850355  0.757272
H    -0.867156  0.801049  -0.834596
H    -2.143079  -0.414830  -0.573930
H    -0.661136  -0.886354  -1.415760
N    -0.396783  0.109576  1.766890
C    -1.516901  0.890012  2.317748
C    -2.615456  -0.125313  2.734656
O    -2.379916  -1.388440  2.747871
H    0.239622  -0.245374  2.481339
H    -1.124613  1.317451  3.252618
C    -1.989261  2.093004  1.447902
C    -2.802075  3.105672  2.199942
C    -2.313082  4.050293  3.099458
C    -4.223630  3.327196  2.107051
N    -3.342532  4.812723  3.562782
C    -4.531230  4.406984  2.983664
C    -5.268723  2.745892  1.355352
C    -5.824366  4.903555  3.139781
C    -6.560394  3.237715  1.509462
C    -6.835610  4.299074  2.391501
H    -2.562066  1.738103  0.582416
H    -1.073702  2.559950  1.057223
H    -1.293533  4.245876  3.416971
H    -3.242427  5.590825  4.206257
H    -5.073600  1.942085  0.643576
H    -6.040853  5.735818  3.808465
H    -7.373145  2.809040  0.925201
H    -7.856449  4.666163  2.483333
N    -3.786800  0.342539  3.101849
C    -4.930966  -0.459859  3.533256
H    -3.917887  1.362278  3.051878
H    -5.842537  0.093024  3.286509
H    -4.893316  -0.625434  4.617959
H    -4.931924  -1.425155  3.019393
Pb    -0.942983  -3.126604  2.364567
