37
Energy: -613505.00146 eV PBE+vdW (tier 2 basis)
C    0.456264  0.801039  0.403406
C    0.230928  0.410475  1.833073
O    1.153423  0.309071  2.656691
H    -0.443203  0.740638  -0.218970
H    1.243159  0.167466  -0.022702
H    0.831921  1.833561  0.383645
N    -1.063602  0.163056  2.219969
C    -1.434903  0.022909  3.626088
C    -1.075332  -1.381778  4.170621
O    -1.970468  -2.192230  4.632389
H    -1.802527  0.206339  1.525350
H    -0.796024  0.724304  4.190482
C    -2.910514  0.428180  3.802943
C    -3.399844  0.499740  5.219634
C    -3.062389  1.421701  6.193421
C    -4.381961  -0.362094  5.827001
N    -3.746138  1.159448  7.360565
C    -4.547954  0.068150  7.194218
C    -5.180492  -1.445522  5.352980
C    -5.404541  -0.598308  8.087119
C    -6.050058  -2.089850  6.256398
C    -6.141743  -1.681157  7.606257
H    -3.549569  -0.259577  3.231014
H    -3.021343  1.415758  3.332150
H    -2.386741  2.269955  6.137621
H    -3.662946  1.706131  8.213136
H    -5.166932  -1.733395  4.300708
H    -5.513488  -0.266612  9.119966
H    -6.680322  -2.903694  5.898943
H    -6.821668  -2.204768  8.276180
N    0.193845  -1.698516  4.111600
C    0.777365  -2.974512  4.506287
H    0.796449  -0.950302  3.664307
H    1.155042  -2.921598  5.536912
H    1.622466  -3.189488  3.844590
H    0.037771  -3.776770  4.422950
Pb    -3.130728  -2.609592  6.482071
