37
Energy: -613504.591723 eV PBE+vdW (tier 2 basis)
C    0.099172  -1.399251  0.356674
C    0.052084  -0.998071  1.792260
O    1.129603  -0.974138  2.469545
H    0.754611  -0.699426  -0.181351
H    -0.885013  -1.408512  -0.122969
H    0.558324  -2.393140  0.271657
N    -1.125428  -0.656079  2.334043
C    -1.310501  -0.082259  3.673681
C    -1.138734  -1.157640  4.770795
O    -0.009118  -1.205678  5.383745
H    -1.938144  -0.675297  1.721698
H    -0.460853  0.595221  3.847453
C    -2.597373  0.760830  3.733020
C    -2.956239  1.211395  5.117320
C    -2.115743  1.770993  6.076732
C    -4.275724  1.199998  5.683829
N    -2.843070  2.082361  7.189109
C    -4.172015  1.751747  6.989679
C    -5.544393  0.805570  5.211695
C    -5.272787  1.901809  7.832000
C    -6.646805  0.952890  6.046976
C    -6.512965  1.489983  7.340022
H    -3.438982  0.194198  3.311146
H    -2.447728  1.619825  3.058234
H    -1.056055  2.000906  6.037066
H    -2.471699  2.527343  8.020924
H    -5.678016  0.414004  4.202018
H    -5.177795  2.330206  8.829058
H    -7.633868  0.660681  5.692596
H    -7.395846  1.597247  7.967982
N    -2.051238  -2.058498  5.082387
C    -3.416254  -2.244084  4.584659
H    -1.758164  -2.689056  5.830220
H    -4.115253  -1.585577  5.114368
H    -3.697767  -3.285420  4.767454
H    -3.469767  -2.063193  3.507297
Pb    2.078414  -1.032756  4.526978
