37
Energy: -613504.933101 eV PBE+vdW (tier 2 basis)
C    -0.454315  2.333775  0.867151
C    -1.069841  1.415024  1.867650
O    -1.592876  1.911038  2.926264
H    -0.091252  1.807533  -0.022203
H    0.373720  2.883138  1.335713
H    -1.203332  3.080419  0.569236
N    -1.071620  0.108936  1.608820
C    -1.805571  -0.940608  2.330103
C    -1.081052  -1.323836  3.635295
O    -1.250540  -0.619633  4.692477
H    -0.732303  -0.154018  0.674368
H    -2.772869  -0.513759  2.643659
C    -2.104359  -2.118415  1.360466
C    -2.612847  -1.652210  0.034526
C    -3.934501  -1.498267  -0.358460
C    -1.798446  -1.231202  -1.075668
N    -3.973358  -0.996068  -1.628285
C    -2.687785  -0.809852  -2.102995
C    -0.408434  -1.173221  -1.312006
C    -2.236347  -0.321435  -3.328992
C    0.045706  -0.676599  -2.531987
C    -0.857110  -0.252943  -3.524027
H    -2.820246  -2.787049  1.856601
H    -1.189283  -2.709402  1.183568
H    -4.850302  -1.736787  0.172823
H    -4.821225  -0.835082  -2.160928
H    0.313309  -1.568010  -0.591104
H    -2.929149  -0.010680  -4.110244
H    1.114765  -0.643239  -2.736373
H    -0.471727  0.117908  -4.472266
N    -0.311514  -2.392774  3.664536
C    0.435228  -2.886284  4.824014
H    -0.244844  -2.938024  2.807484
H    0.188177  -2.284244  5.700293
H    1.511341  -2.824170  4.619966
H    0.165094  -3.933175  5.004616
Pb    -2.073292  1.447214  5.051909
