37
Energy: -613505.784419 eV PBE+vdW (tier 2 basis)
C    -2.030126  4.670590  1.418445
C    -1.345148  3.808998  2.432648
O    -0.233328  4.175895  2.902219
H    -2.244805  5.647862  1.872194
H    -2.959213  4.241522  1.029302
H    -1.338871  4.852949  0.584989
N    -1.958240  2.663731  2.786703
C    -1.530986  1.585849  3.706385
C    -1.623962  2.046131  5.165873
O    -0.856722  2.935675  5.642733
H    -2.855680  2.503359  2.338363
H    -2.302926  0.819617  3.560074
C    -0.205483  0.858095  3.323302
C    1.168432  1.335081  3.744416
C    2.183790  1.725286  2.850185
C    1.855919  1.018532  4.998662
N    3.391518  1.694529  3.476565
C    3.245175  1.272172  4.789824
C    1.436209  0.518208  6.248746
C    4.208759  1.071531  5.782545
C    2.394227  0.304747  7.229179
C    3.759407  0.584010  7.002035
H    -0.227538  0.760075  2.229644
H    -0.310454  -0.166089  3.713134
H    2.106148  1.977019  1.796624
H    4.276782  1.926229  3.033876
H    0.391094  0.276170  6.438554
H    5.265255  1.266700  5.603150
H    2.093339  -0.098286  8.195018
H    4.478071  0.400432  7.799169
N    -2.544554  1.474347  5.930821
C    -2.759853  1.796174  7.343877
H    -3.177027  0.803228  5.503313
H    -3.152915  0.909297  7.849630
H    -3.480164  2.618554  7.442900
H    -1.810918  2.095734  7.797478
Pb    1.100212  3.758886  4.748890
