37
Energy: -613504.800271 eV PBE+vdW (tier 2 basis)
C    -1.788406  -0.124585  -0.241104
C    -1.539291  0.502766  1.087923
O    -1.006219  -0.199698  2.015670
H    -0.986982  -0.827155  -0.491210
H    -2.728279  -0.695171  -0.165619
H    -1.907109  0.612518  -1.043002
N    -1.865011  1.793384  1.255968
C    -2.251090  2.442614  2.521631
C    -1.044159  2.995236  3.288376
O    -0.154009  2.237934  3.802230
H    -2.296388  2.217260  0.436550
H    -2.844131  3.306702  2.199589
C    -3.181146  1.556094  3.410341
C    -4.154391  0.753346  2.611350
C    -4.392274  -0.606927  2.773741
C    -5.006208  1.192705  1.536227
N    -5.326448  -1.021624  1.872654
C    -5.730385  0.050282  1.092411
C    -5.254407  2.428105  0.902989
C    -6.664134  0.101096  0.059006
C    -6.178676  2.484640  -0.135635
C    -6.872692  1.335707  -0.554755
H    -3.686369  2.243708  4.107695
H    -2.591946  0.881750  4.052911
H    -3.960327  -1.305652  3.483124
H    -5.706952  -1.960076  1.818229
H    -4.780750  3.351620  1.241030
H    -7.219889  -0.782624  -0.252653
H    -6.386672  3.437106  -0.620539
H    -7.598211  1.414064  -1.362648
N    -0.961514  4.306057  3.429453
C    0.092401  5.025086  4.148609
H    -1.687944  4.871983  2.996480
H    0.753943  5.527514  3.431426
H    0.669331  4.319622  4.749963
H    -0.370658  5.776813  4.797247
Pb    0.282392  0.025799  3.811350
