37
Energy: -613504.257761 eV PBE+vdW (tier 2 basis)
C    -0.236317  0.089636  0.773861
C    -0.967441  0.542920  1.988351
O    -0.453623  1.462544  2.714058
H    -0.901930  -0.217795  -0.036210
H    0.425375  -0.753748  1.031577
H    0.412193  0.908321  0.441169
N    -2.165958  0.036037  2.361922
C    -2.530590  -1.382023  2.456351
C    -1.688048  -1.996784  3.592890
O    -0.898007  -1.282271  4.313587
H    -2.624972  0.614436  3.067584
H    -3.576231  -1.386288  2.800663
C    -2.511991  -2.189481  1.116507
C    -3.270823  -3.474660  1.192809
C    -2.750391  -4.751032  0.969166
C    -4.679281  -3.641684  1.435764
N    -3.749882  -5.671626  1.072268
C    -4.948571  -5.035683  1.358489
C    -5.748422  -2.754678  1.675269
C    -6.225758  -5.564657  1.532700
C    -7.025467  -3.276897  1.854312
C    -7.259887  -4.661546  1.788213
H    -1.480875  -2.385696  0.798467
H    -2.971697  -1.529085  0.365580
H    -1.740612  -5.050089  0.704678
H    -3.641861  -6.666613  0.906591
H    -5.601260  -1.673577  1.680961
H    -6.418516  -6.634436  1.461711
H    -7.863367  -2.604422  2.030169
H    -8.272285  -5.038547  1.923521
N    -1.827380  -3.283868  3.829145
C    -1.121726  -4.022789  4.877894
H    -2.422197  -3.800706  3.166435
H    -1.486538  -5.052856  4.874418
H    -1.324389  -3.573112  5.856624
H    -0.039777  -4.020043  4.697670
Pb    -0.095997  0.775883  4.872867
