37
Energy: -613504.481368 eV PBE+vdW (tier 2 basis)
C    -0.424827  -0.023263  -0.183892
C    -0.423909  0.120987  1.300097
O    0.591987  0.652112  1.871525
H    0.415812  -0.670344  -0.473490
H    -1.354541  -0.453166  -0.571056
H    -0.250179  0.954700  -0.650696
N    -1.462339  -0.324445  2.005378
C    -1.481911  -0.409247  3.468503
C    -2.161734  -1.685171  4.039443
O    -1.550907  -2.261625  4.934992
H    -2.226095  -0.745032  1.481704
H    -0.440066  -0.583121  3.759657
C    -2.006288  0.883332  4.170048
C    -0.957061  1.709722  4.866378
C    -0.887397  3.117318  4.868495
C    -0.010252  1.262327  5.885942
N    0.008223  3.537043  5.821613
C    0.563791  2.446310  6.471251
C    0.347894  -0.009081  6.412019
C    1.476673  2.397861  7.528478
C    1.247194  -0.042244  7.463435
C    1.803261  1.138159  8.011748
H    -2.740345  0.591110  4.937432
H    -2.549658  1.503857  3.445886
H    -1.487409  3.831718  4.311560
H    0.191613  4.510928  6.051311
H    -0.107503  -0.926043  6.031399
H    1.890528  3.303002  7.971081
H    1.522134  -1.003127  7.896189
H    2.498374  1.056309  8.846495
N    -3.377244  -2.079772  3.595867
C    -4.280496  -1.448604  2.640786
H    -3.701898  -2.933845  4.046381
H    -5.311332  -1.701449  2.910439
H    -4.208503  -0.354441  2.674666
H    -4.121268  -1.805648  1.609767
Pb    1.325594  1.912840  3.584027
