37
Energy: -613504.880677 eV PBE+vdW (tier 2 basis)
C    -1.810373  -1.831271  0.428893
C    -1.305051  -1.053002  1.596447
O    -0.054559  -0.801526  1.674017
H    -1.526522  -1.304047  -0.492648
H    -2.895386  -1.974836  0.446467
H    -1.314462  -2.810969  0.401219
N    -2.178681  -0.631782  2.513738
C    -1.934666  0.335660  3.591128
C    -1.197175  -0.315279  4.774431
O    0.074229  -0.462548  4.747769
H    -3.168410  -0.733565  2.270080
H    -1.251645  1.109793  3.204402
C    -3.287336  1.014651  3.945006
C    -3.997339  1.511701  2.728136
C    -5.183542  0.999655  2.210145
C    -3.602951  2.595889  1.871084
N    -5.527392  1.702223  1.090870
C    -4.587583  2.690217  0.849747
C    -2.540599  3.519499  1.879632
C    -4.533853  3.654269  -0.157054
C    -2.481923  4.483942  0.878664
C    -3.462617  4.547101  -0.127925
H    -3.078286  1.831480  4.651849
H    -3.948853  0.299437  4.461331
H    -5.831570  0.218510  2.597230
H    -6.379325  1.564347  0.558336
H    -1.792599  3.515116  2.674560
H    -5.299971  3.720098  -0.928668
H    -1.676042  5.216150  0.880113
H    -3.393149  5.318687  -0.892914
N    -1.870716  -0.693859  5.841642
C    -1.271767  -1.313060  7.028921
H    -2.874811  -0.534711  5.847705
H    -1.023887  -2.362830  6.827252
H    -1.995997  -1.262741  7.845931
H    -0.361064  -0.774221  7.309733
Pb    1.616744  -0.406606  3.101845
