37
Energy: -613504.56287 eV PBE+vdW (tier 2 basis)
C    -0.179426  1.530271  0.338053
C    -0.228907  0.942950  1.707686
O    0.726601  1.162837  2.519592
H    -0.132060  2.625091  0.424458
H    -1.039670  1.255632  -0.281138
H    0.746121  1.211003  -0.159502
N    -1.288999  0.201826  2.064227
C    -1.509445  -0.297254  3.426324
C    -0.511766  -1.425787  3.749296
O    0.436656  -1.178149  4.576275
H    -2.044695  0.107516  1.389138
H    -1.235059  0.514185  4.116436
C    -3.008357  -0.596778  3.704843
C    -3.332250  -0.637673  5.165553
C    -3.862776  0.428197  5.886667
C    -3.188486  -1.729348  6.088544
N    -4.036396  0.057279  7.185943
C    -3.639325  -1.258212  7.354474
C    -2.768173  -3.070541  5.986320
C    -3.661635  -2.059470  8.493935
C    -2.788311  -3.877927  7.118836
C    -3.223673  -3.378495  8.358435
H    -3.325739  -1.521795  3.205412
H    -3.574618  0.222113  3.235160
H    -4.154993  1.416994  5.546686
H    -4.454638  0.637610  7.904794
H    -2.459615  -3.494683  5.031550
H    -4.016905  -1.681326  9.451851
H    -2.477997  -4.919056  7.045910
H    -3.234523  -4.035190  9.226664
N    -0.565969  -2.626827  3.198948
C    -1.503081  -3.186189  2.222797
H    0.163721  -3.259121  3.532302
H    -0.959263  -3.915240  1.613311
H    -1.893635  -2.411320  1.559192
H    -2.335040  -3.699434  2.722264
Pb    1.741372  0.673372  4.500417
