37
Energy: -613504.922406 eV PBE+vdW (tier 2 basis)
C    -0.133227  1.241645  0.194392
C    -0.418223  0.525706  1.470320
O    0.388325  0.695998  2.463718
H    0.852893  0.921976  -0.172620
H    -0.883569  1.043920  -0.577416
H    -0.064865  2.321356  0.382111
N    -1.464438  -0.273262  1.548803
C    -1.793354  -1.248569  2.580829
C    -2.508220  -2.373645  1.745055
O    -2.986487  -2.048576  0.656903
H    -2.041829  -0.486728  0.706672
H    -0.867823  -1.624758  3.044290
C    -2.782159  -0.728798  3.657662
C    -2.325241  0.304803  4.656641
C    -2.198500  0.071225  6.039075
C    -2.304637  1.759850  4.508314
N    -2.105103  1.253300  6.715347
C    -2.170287  2.318425  5.827428
C    -2.463852  2.644802  3.409279
C    -2.183985  3.696518  6.069561
C    -2.479427  4.006997  3.658167
C    -2.341626  4.524762  4.967434
H    -3.134543  -1.604938  4.218610
H    -3.667330  -0.334127  3.135568
H    -2.232206  -0.873752  6.574429
H    -2.044134  1.337956  7.727253
H    -2.617969  2.258890  2.402922
H    -2.101665  4.101048  7.077639
H    -2.624060  4.700793  2.831230
H    -2.373594  5.603404  5.115178
N    -2.578328  -3.591106  2.299353
C    -3.245454  -4.725363  1.654801
H    -2.076038  -3.769266  3.162803
H    -3.914296  -5.216456  2.370188
H    -2.505671  -5.449255  1.291440
H    -3.826293  -4.349385  0.808674
Pb    0.249572  1.050431  4.633181
