37
Energy: -613504.934 eV PBE+vdW (tier 2 basis)
C    -0.158894  0.571777  0.190998
C    -0.102592  0.426664  1.681467
O    0.875508  0.778071  2.358379
H    -0.171385  1.644263  -0.049329
H    -1.033775  0.098004  -0.267432
H    0.757537  0.157879  -0.245733
N    -1.199939  -0.121691  2.301450
C    -1.372853  -0.075100  3.752726
C    -0.521453  -1.151838  4.463127
O    -1.052290  -2.027301  5.255671
H    -1.966295  -0.467565  1.732425
H    -0.973220  0.901377  4.078312
C    -2.876769  -0.153087  4.053314
C    -3.370941  0.123258  5.461516
C    -4.743049  0.165083  5.760235
C    -2.709080  0.669926  6.646216
N    -4.947690  0.682594  6.996991
C    -3.742912  0.980670  7.596343
C    -1.352434  0.814049  7.073905
C    -3.476592  1.463822  8.878430
C    -1.100729  1.280909  8.369390
C    -2.143010  1.609482  9.252065
H    -3.260677  -1.129842  3.719736
H    -3.345497  0.597790  3.399537
H    -5.580757  -0.105857  5.123743
H    -5.861294  0.811768  7.425236
H    -0.516353  0.672193  6.389728
H    -4.283717  1.717688  9.565505
H    -0.068475  1.421035  8.687467
H    -1.903891  1.987258  10.244769
N    0.762969  -1.128687  4.215169
C    1.760497  -2.063044  4.722927
H    1.048102  -0.362312  3.541354
H    2.240977  -2.569034  3.876348
H    1.293140  -2.806348  5.372746
H    2.530589  -1.508543  5.273262
Pb    -2.320473  -1.846354  7.057825
