37
Energy: -613505.705748 eV PBE+vdW (tier 2 basis)
C    -0.688086  1.369271  0.256310
C    -0.382534  0.716215  1.567992
O    0.689499  0.057335  1.692806
H    -0.665420  0.604577  -0.531877
H    0.106553  2.090682  0.022831
H    -1.656424  1.879651  0.232536
N    -1.289472  0.847435  2.550786
C    -1.352905  0.252315  3.898844
C    -0.319568  0.883067  4.837313
O    0.919567  0.889231  4.572897
H    -2.103877  1.400366  2.299738
H    -2.341918  0.562790  4.248659
C    -1.355333  -1.328433  3.948194
C    -0.178786  -2.002742  4.583532
C    0.033035  -2.169115  5.938321
C    0.974139  -2.579265  3.931331
N    1.249003  -2.768825  6.163523
C    1.865562  -3.029524  4.968494
C    1.331374  -2.846992  2.574557
C    3.095969  -3.640012  4.688174
C    2.557594  -3.462605  2.309859
C    3.434008  -3.836120  3.353146
H    -1.503303  -1.690087  2.922817
H    -2.262367  -1.615826  4.495285
H    -0.609497  -1.908888  6.773667
H    1.609378  -3.025724  7.077040
H    0.645503  -2.615458  1.760519
H    3.756557  -3.974631  5.487721
H    2.831666  -3.682111  1.278865
H    4.379744  -4.316075  3.106971
N    -0.741363  1.435870  5.970898
C    -2.113443  1.610376  6.462310
H    0.006658  1.835106  6.538150
H    -2.673447  2.323162  5.843671
H    -2.056276  2.016015  7.476250
H    -2.647351  0.654162  6.512865
Pb    2.344560  -0.386191  3.215006
