37
Energy: -613505.052888 eV PBE+vdW (tier 2 basis)
C    0.188301  2.214875  1.763738
C    -0.045428  1.040453  2.656335
O    0.966516  0.391245  3.125454
H    0.749355  1.881656  0.879456
H    -0.743089  2.688261  1.437846
H    0.810996  2.957292  2.280108
N    -1.281204  0.670357  2.918302
C    -1.745933  -0.513719  3.629503
C    -3.106283  -0.822294  2.919588
O    -3.646042  0.099960  2.304135
H    -2.090191  1.104332  2.428356
H    -1.018743  -1.326828  3.494818
C    -2.014378  -0.234387  5.135230
C    -0.858229  0.327268  5.903317
C    -0.764060  1.603871  6.416968
C    0.346655  -0.341461  6.304528
N    0.432264  1.776166  7.084211
C    1.146341  0.614142  7.041480
C    0.841874  -1.665112  6.164217
C    2.394650  0.270763  7.601258
C    2.071221  -2.009171  6.761068
C    2.837470  -1.050034  7.464663
H    -2.352027  -1.174163  5.597533
H    -2.862726  0.460185  5.205756
H    -1.483650  2.415956  6.369917
H    0.700034  2.617861  7.585844
H    0.256502  -2.427001  5.649495
H    2.981642  0.998639  8.162113
H    2.432447  -3.034474  6.688715
H    3.784186  -1.345274  7.914235
N    -3.607996  -2.055769  3.075546
C    -4.896074  -2.473440  2.518968
H    -3.053543  -2.754558  3.558374
H    -5.529669  -2.888892  3.311006
H    -4.747924  -3.228783  1.737704
H    -5.383118  -1.596548  2.084622
Pb    2.528856  -0.194371  4.587586
