20
Energy: -21829.1989461 eV PBE+vdW (tier 2 basis)
N    -0.529653  -0.415975  0.201065
C    0.014430  -0.112639  1.521631
C    1.528143  0.118066  1.622014
O    2.075087  0.714914  2.525117
H    -0.396487  0.375065  -0.428457
H    -0.036098  -1.201083  -0.223676
H    -0.429930  0.836060  1.856509
C    -0.406682  -1.179880  2.562485
C    0.149544  -2.578942  2.296823
S    -0.347047  -3.831007  3.526279
C    -2.098482  -4.057597  3.105722
H    -1.504851  -1.201867  2.549919
H    -0.090388  -0.846976  3.559990
H    1.248153  -2.583376  2.344273
H    -0.133393  -2.949890  1.300517
H    -2.690411  -3.153612  3.292476
H    -2.467843  -4.856738  3.758997
H    -2.216526  -4.373060  2.061003
O    2.223191  -0.444043  0.588828
H    3.164436  -0.257713  0.774266
