20
Energy: -21829.1732064 eV PBE+vdW (tier 2 basis)
N    -0.138317  0.088117  -0.117783
C    -0.275061  -0.026078  1.333947
C    1.074171  0.132465  2.016917
O    1.251287  0.646336  3.101767
H    0.435132  -0.670082  -0.489649
H    -1.056777  0.019384  -0.556662
H    -0.888941  0.814154  1.688286
C    -0.939717  -1.337830  1.840158
C    -1.374051  -1.323826  3.308774
S    -2.725135  -0.163131  3.709262
C    -4.140951  -1.023560  2.967204
H    -0.249171  -2.181536  1.672609
H    -1.811010  -1.523513  1.193090
H    -0.546673  -1.010666  3.960102
H    -1.676684  -2.330794  3.630531
H    -5.024546  -0.416446  3.196063
H    -4.273955  -2.020133  3.408322
H    -4.053125  -1.107514  1.876738
O    2.085967  -0.442816  1.305695
H    2.892667  -0.316448  1.841688
