20
Energy: -21829.3168842 eV PBE+vdW (tier 2 basis)
N    0.454124  -1.297309  -0.160280
C    0.349799  -0.321579  0.943401
C    1.772964  0.150975  1.342308
O    2.727081  -0.273276  0.495046
H    -0.252905  -1.148015  -0.876460
H    0.349201  -2.253384  0.181344
H    -0.142108  0.581825  0.546563
C    -0.423247  -0.806739  2.176466
C    -1.919297  -0.966093  1.917844
S    -2.729653  -1.652711  3.398383
C    -4.436949  -1.749970  2.799949
H    -0.250454  -0.089612  2.989863
H    0.006746  -1.766228  2.510458
H    -2.107821  -1.644312  1.070401
H    -2.369694  0.010174  1.678766
H    -5.033765  -2.161438  3.622115
H    -4.521782  -2.419655  1.934029
H    -4.828488  -0.756970  2.543772
O    1.993616  0.853122  2.303013
H    2.216633  -0.822805  -0.166982
