20
Energy: -21829.3107717 eV PBE+vdW (tier 2 basis)
N    1.601138  0.150359  2.408614
C    1.493397  -1.236220  2.852012
C    0.999909  -2.266611  1.821939
O    0.704787  -3.418144  2.081240
H    2.310263  0.232099  1.681000
H    0.724940  0.445063  1.974108
H    2.516885  -1.583768  3.077276
C    0.705555  -1.353228  4.171465
C    -0.625199  -0.598347  4.202731
S    -1.814472  -0.976162  2.874575
C    -2.286047  -2.681250  3.271449
H    1.334813  -0.942326  4.975329
H    0.554027  -2.418118  4.391811
H    -0.451339  0.482211  4.102383
H    -1.120007  -0.751519  5.172832
H    -1.451742  -3.376531  3.121739
H    -3.096256  -2.942028  2.580506
H    -2.666221  -2.747228  4.299054
O    1.036147  -1.795500  0.544460
H    0.750420  -2.542751  -0.015524
