20
Energy: -21829.2375938 eV PBE+vdW (tier 2 basis)
N    2.079193  -2.157077  0.761983
C    0.691919  -1.715986  0.705173
C    0.643786  -0.231981  1.103874
O    -0.396499  0.481029  0.615433
H    2.555937  -1.638498  1.503547
H    2.144657  -3.152532  0.970372
H    0.335967  -1.791187  -0.337362
C    -0.264022  -2.558886  1.596584
C    -1.732641  -2.127703  1.647340
S    -2.426151  -1.889740  -0.032877
C    -4.034487  -1.174666  0.400329
H    0.128778  -2.548157  2.625112
H    -0.199527  -3.598227  1.239015
H    -1.841966  -1.178705  2.191637
H    -2.330969  -2.888698  2.166773
H    -4.631385  -1.886435  0.983492
H    -4.551403  -0.964456  -0.542627
H    -3.911244  -0.238861  0.959088
O    1.468076  0.282852  1.826780
H    -1.005021  -0.119086  0.107334
