20
Energy: -21829.1750472 eV PBE+vdW (tier 2 basis)
N    0.466707  -0.042873  -0.114967
C    -0.028624  0.005012  1.263223
C    1.117009  -0.274263  2.226980
O    1.372316  0.366240  3.223384
H    -0.289544  0.184911  -0.761294
H    0.786143  -0.984996  -0.344945
H    -0.334235  1.039288  1.475698
C    -1.225830  -0.938798  1.562430
C    -1.790847  -0.819589  2.977974
S    -3.310848  -1.783035  3.273864
C    -2.657097  -3.476508  3.260267
H    -0.909966  -1.973234  1.358268
H    -2.019045  -0.699518  0.837970
H    -2.084730  0.218789  3.189493
H    -1.047660  -1.096018  3.739975
H    -3.498740  -4.131906  3.512684
H    -1.873661  -3.602298  4.018919
H    -2.274077  -3.766377  2.274288
O    1.819374  -1.387853  1.866912
H    2.521224  -1.491373  2.538107
