20
Energy: -21829.3038296 eV PBE+vdW (tier 2 basis)
N    -0.402857  -0.101632  -0.091952
C    0.238263  -0.240277  1.229937
C    1.701257  -0.694249  1.026362
O    1.938414  -1.188379  -0.202918
H    -1.389382  -0.355857  -0.059541
H    1.072617  -1.043846  -0.680884
H    0.277443  0.711348  1.783965
C    -0.527593  -1.279727  2.076080
C    -0.036570  -1.407482  3.518251
S    -0.921764  -2.661551  4.497319
C    -2.539129  -1.866851  4.719291
H    -0.478307  -2.262364  1.582656
H    -1.587178  -0.975586  2.075819
H    -0.090203  -0.441405  4.042472
H    1.014372  -1.721474  3.545096
H    -3.114693  -2.523855  5.381721
H    -3.088445  -1.762504  3.775292
H    -2.433962  -0.886654  5.202687
O    2.543193  -0.638690  1.895901
H    -0.341479  0.853412  -0.442621
