20
Energy: -21829.3398832 eV PBE+vdW (tier 2 basis)
N    0.521763  -0.361550  0.894266
C    0.705380  -1.083509  2.146968
C    2.151665  -1.496862  2.404418
O    3.027356  -1.554319  1.565559
H    0.851128  0.598676  0.988271
H    1.103303  -0.789243  0.169947
H    0.385107  -0.435944  2.979236
C    -0.196841  -2.335477  2.186406
C    -1.686126  -1.985411  2.211978
S    -2.246854  -1.021122  3.653682
C    -1.955240  -2.200215  5.003221
H    0.068880  -2.956022  3.053409
H    0.004808  -2.944761  1.289662
H    -2.294109  -2.898672  2.139429
H    -1.930731  -1.347310  1.352434
H    -0.886668  -2.391971  5.160445
H    -2.483590  -3.145493  4.822640
H    -2.362665  -1.737294  5.909422
O    2.363636  -1.826268  3.711803
H    3.298369  -2.104819  3.771728
