20
Energy: -21829.3128266 eV PBE+vdW (tier 2 basis)
N    0.523755  0.223697  -0.151756
C    0.047004  0.102249  1.240994
C    1.257270  0.207252  2.204916
O    2.396515  0.567696  1.587047
H    -0.105675  0.789928  -0.716835
H    0.596351  -0.690202  -0.600220
H    -0.557839  0.995825  1.460295
C    -0.816289  -1.132091  1.551531
C    -0.076577  -2.460060  1.387082
S    -1.248571  -3.834323  1.624982
C    -0.113088  -5.238822  1.483199
H    -1.702344  -1.110368  0.898442
H    -1.172103  -1.047697  2.586922
H    0.729870  -2.540226  2.129896
H    0.369747  -2.560573  0.383535
H    0.653331  -5.211909  2.268202
H    0.364582  -5.271591  0.495253
H    -0.717999  -6.143902  1.611283
O    1.176303  0.009420  3.396666
H    2.120756  0.645697  0.628567
