20
Energy: -21829.3613724 eV PBE+vdW (tier 2 basis)
N    0.683564  0.637211  0.411294
C    0.195372  -0.327923  1.416746
C    1.388498  -0.818674  2.277117
O    1.292241  -1.700125  3.101768
H    0.754026  0.206786  -0.511302
H    0.077174  1.449712  0.326727
H    -0.451566  0.218420  2.122996
C    -0.586746  -1.520467  0.849229
C    -1.960088  -1.130858  0.304824
S    -2.871630  -2.471012  -0.522175
C    -3.212085  -3.581030  0.871517
H    -0.684078  -2.260628  1.654053
H    0.007643  -1.999807  0.054058
H    -1.874634  -0.358157  -0.474196
H    -2.589682  -0.709864  1.105230
H    -2.297258  -4.024079  1.282151
H    -3.841084  -4.385347  0.472700
H    -3.766420  -3.061301  1.663711
O    2.528095  -0.149096  2.032594
H    2.264653  0.492239  1.310957
