20
Energy: -21829.4105205 eV PBE+vdW (tier 2 basis)
N    1.359217  0.571136  0.573327
C    0.702947  0.181893  1.836637
C    1.775629  -0.405999  2.793372
O    3.027158  -0.236070  2.338855
H    0.994486  1.450764  0.213797
H    1.213969  -0.147186  -0.146280
H    0.364794  1.103207  2.336896
C    -0.509966  -0.759273  1.735411
C    -0.224904  -2.143459  1.142745
S    -0.121162  -2.092986  -0.686078
C    0.529751  -3.752154  -1.009713
H    -1.312638  -0.261043  1.170198
H    -0.884841  -0.907140  2.757627
H    -1.028132  -2.840646  1.417296
H    0.717047  -2.548601  1.540870
H    1.516934  -3.888536  -0.551015
H    0.623831  -3.849522  -2.097218
H    -0.162479  -4.520954  -0.643618
O    1.508496  -0.941874  3.847629
H    2.876862  0.219443  1.454263
