20
Energy: -21829.1828869 eV PBE+vdW (tier 2 basis)
N    0.580488  -2.160268  1.111360
C    0.825445  -0.805914  1.601354
C    2.129991  -0.250996  1.043148
O    2.322341  0.909112  0.747113
H    1.330191  -2.787673  1.404916
H    -0.289088  -2.517993  1.512611
H    0.042244  -0.150841  1.190420
C    0.850834  -0.596435  3.142940
C    -0.514704  -0.696544  3.824964
S    -1.149515  -2.411603  3.910398
C    -2.707460  -2.101141  4.781885
H    1.239610  0.414062  3.347101
H    1.558833  -1.309098  3.594634
H    -1.250296  -0.070705  3.295685
H    -0.435628  -0.322235  4.855949
H    -3.194846  -3.073903  4.913603
H    -3.369376  -1.449486  4.197335
H    -2.526371  -1.658768  5.770324
O    3.104753  -1.200381  0.968933
H    3.898554  -0.742189  0.631328
