20
Energy: -21829.3005683 eV PBE+vdW (tier 2 basis)
N    1.596845  -2.297297  1.001915
C    1.107482  -1.380910  2.023962
C    1.873280  -0.076022  2.246338
O    1.478729  0.841721  2.937336
H    1.503450  -1.890330  0.072502
H    2.589148  -2.493344  1.136933
H    0.088335  -1.067682  1.736487
C    0.963848  -2.106645  3.375880
C    -0.152488  -3.153607  3.372087
S    -1.820047  -2.520260  3.002963
C    -2.075007  -1.364850  4.378611
H    0.791625  -1.362664  4.164809
H    1.915688  -2.608802  3.618855
H    -0.177865  -3.682263  4.335896
H    0.028829  -3.896775  2.584127
H    -3.108635  -1.010129  4.293033
H    -1.402811  -0.499987  4.319763
H    -1.955336  -1.869652  5.346216
O    3.071078  -0.034082  1.592371
H    3.460852  0.832579  1.819915
