20
Energy: -21829.2223204 eV PBE+vdW (tier 2 basis)
N    0.261771  -0.222770  0.093733
C    0.156971  -0.406294  1.535688
C    1.546965  -0.703086  2.072453
O    2.432899  -1.247166  1.447734
H    -0.645314  -0.311550  -0.360625
H    0.887475  -0.930822  -0.294768
H    -0.181881  0.536212  1.996868
C    -0.788089  -1.543454  2.026349
C    -2.252251  -1.273730  1.682344
S    -3.410884  -2.591633  2.172772
C    -3.382310  -2.431128  3.980474
H    -0.678548  -1.640626  3.116543
H    -0.468588  -2.495660  1.577374
H    -2.397901  -1.200470  0.594350
H    -2.591179  -0.320764  2.118138
H    -3.673036  -1.419403  4.291731
H    -2.404250  -2.688329  4.404527
H    -4.124428  -3.142715  4.360758
O    1.679050  -0.331199  3.375336
H    2.575492  -0.611127  3.645031
