20
Energy: -21829.1446788 eV PBE+vdW (tier 2 basis)
N    -0.140435  -1.078568  -0.544975
C    -0.370932  -0.398654  0.727893
C    0.928850  0.301680  1.102915
O    2.032257  -0.182507  0.967305
H    -0.867419  -1.773182  -0.716602
H    0.755772  -1.568673  -0.504494
H    -1.140028  0.376317  0.585774
C    -0.839851  -1.339372  1.872260
C    -1.174052  -0.666729  3.210601
S    0.289268  -0.638226  4.304928
C    -0.333958  0.444894  5.617550
H    -0.083085  -2.126969  2.014407
H    -1.744873  -1.843557  1.499439
H    -1.979422  -1.212251  3.721821
H    -1.515812  0.367543  3.051662
H    -1.223091  0.017894  6.099581
H    -0.564580  1.446127  5.230450
H    0.464372  0.528353  6.364064
O    0.713869  1.540270  1.616958
H    1.589107  1.865103  1.906547
