20
Energy: -21829.177834 eV PBE+vdW (tier 2 basis)
N    0.021682  0.033918  -0.016172
C    0.016239  -0.132927  1.433792
C    1.320013  -0.628189  2.086208
O    1.415885  -1.021472  3.230578
H    0.683609  0.761489  -0.283152
H    0.359864  -0.825538  -0.454396
H    -0.117442  0.869863  1.875784
C    -1.188295  -0.976450  1.907845
C    -1.470026  -2.227333  1.077311
S    -0.059628  -3.394180  1.064406
C    -0.592487  -4.476835  -0.289856
H    -2.085712  -0.344192  1.849366
H    -1.036409  -1.235236  2.963992
H    -1.684595  -1.942953  0.037188
H    -2.355102  -2.742045  1.477136
H    0.188029  -5.236262  -0.413839
H    -0.699699  -3.920344  -1.230027
H    -1.537532  -4.978933  -0.046170
O    2.400144  -0.500249  1.264257
H    3.162745  -0.808211  1.791077
