20
Energy: -21828.9882429 eV PBE+vdW (tier 2 basis)
N    0.339453  1.293517  1.520363
C    0.490675  -0.010629  2.182875
C    1.849478  -0.650119  1.841074
O    2.838346  -0.521096  2.521942
H    1.092653  1.920261  1.806262
H    0.400877  1.203581  0.504101
H    0.532004  0.174449  3.264389
C    -0.725890  -0.893235  1.881431
C    -0.742820  -2.234488  2.618932
S    -1.061180  -1.977428  4.398714
C    -0.737295  -3.650850  5.010423
H    -0.805694  -1.084292  0.793481
H    -1.623222  -0.307240  2.128612
H    0.217477  -2.761456  2.507203
H    -1.529647  -2.880926  2.205331
H    -1.420143  -4.381807  4.558537
H    -0.912741  -3.626986  6.092057
H    0.303864  -3.945986  4.827726
O    1.935476  -1.321343  0.645322
H    1.049329  -1.385927  0.245224
