20
Energy: -21829.4140032 eV PBE+vdW (tier 2 basis)
N    -0.507059  -1.230358  0.064819
C    -0.385614  -0.472458  1.327206
C    1.091281  -0.514807  1.792125
O    1.914388  -1.016933  0.855254
H    -1.129594  -0.765800  -0.593166
H    -0.884651  -2.165873  0.258047
H    -0.566818  0.589375  1.096267
C    -1.356664  -0.865771  2.456237
C    -1.100240  -2.195233  3.171378
S    -1.194396  -3.715160  2.136214
C    0.545477  -4.239425  2.088042
H    -2.378470  -0.848363  2.047690
H    -1.312526  -0.078769  3.224333
H    -1.848122  -2.321693  3.964895
H    -0.116106  -2.190865  3.657029
H    0.567018  -5.160345  1.493332
H    0.909822  -4.463997  3.097444
H    1.194036  -3.494354  1.613800
O    1.466140  -0.122579  2.876298
H    1.274097  -1.251590  0.112755
