20
Energy: -21829.222322 eV PBE+vdW (tier 2 basis)
N    3.183328  -2.110906  1.930299
C    1.922584  -1.363118  1.892551
C    2.039595  0.045668  2.479125
O    1.875183  1.080699  1.866944
H    3.511458  -2.206509  2.892719
H    3.910774  -1.615695  1.413695
H    1.656414  -1.211185  0.837059
C    0.816111  -2.176613  2.581021
C    -0.551031  -1.498273  2.529122
S    -1.793532  -2.571587  3.319268
C    -3.265417  -1.532697  3.127420
H    1.099841  -2.359702  3.628843
H    0.777722  -3.154851  2.081355
H    -0.850051  -1.308469  1.487007
H    -0.533184  -0.532371  3.056723
H    -3.490369  -1.349041  2.068828
H    -3.152378  -0.576818  3.655224
H    -4.100017  -2.085295  3.574200
O    2.390776  0.023208  3.800338
H    2.468193  0.957556  4.073260
