20
Energy: -21829.1968815 eV PBE+vdW (tier 2 basis)
N    2.616220  -1.725665  1.485423
C    1.357064  -1.383528  2.151537
C    1.290065  0.117894  2.388165
O    0.312632  0.816623  2.214659
H    2.620173  -2.719381  1.253632
H    3.409209  -1.556365  2.105927
H    0.536882  -1.615649  1.458678
C    1.088959  -2.137992  3.479592
C    -0.311253  -1.978437  4.080944
S    -1.653428  -2.700473  3.062562
C    -2.453715  -1.219320  2.378574
H    1.841570  -1.829604  4.225024
H    1.267189  -3.205014  3.274786
H    -0.561256  -0.925917  4.271322
H    -0.348148  -2.494754  5.049406
H    -1.748664  -0.589168  1.825942
H    -2.932476  -0.631392  3.171341
H    -3.229161  -1.586634  1.695688
O    2.459011  0.609493  2.886837
H    2.314126  1.566284  3.018961
