20
Energy: -21829.2087883 eV PBE+vdW (tier 2 basis)
N    2.027999  -0.684186  3.623877
C    0.975467  -1.349310  2.840897
C    1.572644  -2.012054  1.607442
O    1.077654  -2.041657  0.500412
H    1.655955  -0.436303  4.541286
H    2.805867  -1.324539  3.783400
H    0.489966  -2.184858  3.393688
C    -0.126648  -0.349735  2.470714
C    -1.473672  -0.985931  2.117178
S    -2.277826  -1.923173  3.460275
C    -2.795228  -0.578316  4.562199
H    0.211137  0.268458  1.625914
H    -0.251336  0.337198  3.321197
H    -1.355312  -1.711650  1.302059
H    -2.176910  -0.218647  1.763307
H    -3.470521  0.115951  4.045265
H    -1.941943  -0.026992  4.976034
H    -3.338850  -1.047933  5.390153
O    2.747263  -2.644771  1.896096
H    3.038296  -3.060551  1.061607
