20
Energy: -21829.1646544 eV PBE+vdW (tier 2 basis)
N    0.714522  0.299164  2.988408
C    1.004421  -0.944683  2.272966
C    1.961958  -0.681764  1.108955
O    1.951200  -1.244940  0.035275
H    0.005731  0.120292  3.704161
H    1.547865  0.677866  3.436060
H    1.558205  -1.695409  2.885930
C    -0.292157  -1.604442  1.787575
C    -0.963001  -2.558954  2.777377
S    -1.486621  -1.882327  4.401442
C    -0.055979  -2.272036  5.450356
H    -0.067759  -2.175137  0.874417
H    -0.988265  -0.802968  1.499061
H    -0.323949  -3.430396  2.983769
H    -1.887995  -2.946761  2.329619
H    -0.344503  -1.997332  6.471931
H    0.837940  -1.699152  5.174196
H    0.164594  -3.346648  5.426033
O    2.910119  0.237228  1.443033
H    3.491674  0.316401  0.662435
