20
Energy: -21829.1725717 eV PBE+vdW (tier 2 basis)
N    0.126021  -2.544507  1.247743
C    0.945311  -1.468825  1.784916
C    2.370782  -1.823613  2.223905
O    3.322226  -1.072834  2.155696
H    -0.144270  -3.208967  1.973066
H    0.621090  -3.058910  0.520775
H    1.082579  -0.717436  0.990847
C    0.255007  -0.769786  2.977261
C    -1.196381  -0.357134  2.690276
S    -2.465704  -1.583531  3.153355
C    -2.548193  -1.295179  4.942074
H    0.853034  0.117776  3.230540
H    0.288650  -1.431406  3.856988
H    -1.347399  -0.187751  1.616187
H    -1.440292  0.581873  3.206533
H    -2.881983  -0.273599  5.166944
H    -1.585464  -1.487331  5.433593
H    -3.285751  -2.002806  5.338541
O    2.467218  -3.085964  2.734193
H    3.399520  -3.188071  3.007569
