20
Energy: -21829.1795368 eV PBE+vdW (tier 2 basis)
N    2.116975  -2.373982  1.570384
C    1.318934  -1.147981  1.586073
C    2.197350  0.060436  1.879268
O    2.067648  1.155304  1.376331
H    1.541829  -3.173213  1.307212
H    2.508059  -2.564096  2.493710
H    0.936688  -0.982691  0.568120
C    0.115172  -1.106402  2.572247
C    -0.979643  -2.106090  2.203519
S    -2.414496  -2.120543  3.325256
C    -1.703550  -2.923072  4.787735
H    -0.313808  -0.093703  2.579741
H    0.493885  -1.305331  3.586648
H    -0.588313  -3.133125  2.137713
H    -1.406442  -1.859571  1.220109
H    -1.315725  -3.920651  4.542992
H    -2.524226  -3.032550  5.506169
H    -0.915100  -2.317576  5.251222
O    3.127739  -0.205118  2.840615
H    3.615024  0.629954  2.978937
