20
Energy: -21829.2016046 eV PBE+vdW (tier 2 basis)
N    0.769801  0.969063  0.012757
C    0.624618  0.792454  1.469619
C    1.975985  1.120772  2.143528
O    2.072266  1.456295  3.302863
H    2.619419  0.822321  0.427478
H    0.603583  1.935962  -0.265971
H    -0.104807  1.486525  1.917962
C    0.157367  -0.650402  1.746795
C    0.198524  -1.102307  3.213815
S    1.758962  -1.890981  3.734736
C    1.547539  -3.530127  2.984978
H    0.761186  -1.334357  1.129882
H    -0.878772  -0.723661  1.375294
H    -0.620451  -1.805682  3.418473
H    0.073541  -0.249524  3.893503
H    1.472225  -3.478762  1.890732
H    0.669951  -4.048132  3.394175
H    2.446420  -4.103643  3.239739
O    3.030953  1.013302  1.312943
H    0.110697  0.384988  -0.501436
