34
Energy: -18219.1685794 eV PBE+vdW (tier 2 basis)
C    -0.162884  0.600595  -0.147288
C    -0.170071  0.150694  1.299719
O    0.859396  0.002550  1.951267
H    -0.504306  -0.193954  -0.825590
H    0.864319  0.863630  -0.411796
H    -0.810639  1.472954  -0.309052
N    -1.390565  -0.098355  1.890877
C    -2.705674  -0.234970  1.280045
C    -3.695382  0.339294  2.319617
O    -3.870113  -0.289092  3.368711
H    -1.340284  -0.264814  2.894119
H    -2.712544  0.334064  0.343416
C    -3.136406  -1.693659  0.997753
C    -2.168823  -2.624220  0.248021
C    -0.880613  -3.092659  0.965229
C    -1.003610  -3.410498  2.445975
N    -2.106268  -4.431530  2.716205
H    -4.072569  -1.648463  0.420494
H    -3.431355  -2.107747  1.979226
H    -1.870479  -2.170484  -0.707544
H    -2.748971  -3.513951  -0.049726
H    -0.089079  -2.334330  0.910060
H    -0.478494  -3.970353  0.434513
H    -1.271016  -2.531575  3.042535
H    -0.079191  -3.838827  2.849545
H    -1.958900  -5.294985  2.177424
H    -2.155886  -4.680324  3.712531
H    -3.020324  -4.039201  2.445233
N    -4.300675  1.518985  2.058597
C    -4.102602  2.394356  0.908936
H    -4.891059  1.853445  2.815671
H    -4.753712  3.265501  1.027942
H    -4.380030  1.902979  -0.033305
H    -3.067332  2.757234  0.841287
