34
Energy: -18220.2940075 eV PBE+vdW (tier 2 basis)
C    1.121061  2.472650  1.193573
C    0.431361  1.944534  2.427583
O    0.647229  2.450193  3.538229
H    0.877827  1.926016  0.275520
H    2.205299  2.436993  1.355901
H    0.847067  3.527362  1.064454
N    -0.414593  0.891007  2.219921
C    -1.206695  0.160827  3.223504
C    -2.491293  0.969988  3.522622
O    -2.541989  1.937293  4.304640
H    -0.498458  0.573020  1.261622
H    -1.531739  -0.751676  2.710055
C    -0.326280  -0.306145  4.408740
C    -1.002994  -0.791524  5.699509
C    -1.479508  0.260869  6.721207
C    -0.521390  1.416716  7.025278
N    -0.568414  2.498279  5.972421
H    0.416403  0.464298  4.636124
H    0.264082  -1.140053  4.003927
H    -0.265343  -1.432645  6.204150
H    -1.849223  -1.456319  5.466184
H    -1.651554  -0.259938  7.673774
H    -2.454242  0.681197  6.439215
H    0.519549  1.083362  7.125842
H    -0.810112  1.887248  7.971767
H    0.130673  2.402603  5.195142
H    -0.470764  3.432647  6.375782
H    -1.470257  2.420556  5.410976
N    -3.602468  0.612929  2.844457
C    -3.784888  -0.431506  1.841143
H    -4.398615  1.215832  3.038961
H    -4.834468  -0.422141  1.532448
H    -3.567894  -1.429845  2.242551
H    -3.174654  -0.255758  0.944438
