34
Energy: -18219.4501699 eV PBE+vdW (tier 2 basis)
C    0.113033  -1.469269  0.488135
C    -0.090011  -0.346423  1.484575
O    0.845266  0.300034  1.957851
H    0.569753  -2.319996  1.011234
H    0.822435  -1.143310  -0.280719
H    -0.814697  -1.811228  0.013675
N    -1.388578  -0.102867  1.839809
C    -1.755228  0.853961  2.863643
C    -3.248520  0.631110  3.160333
O    -4.010635  0.219466  2.283053
H    -2.164641  -0.619214  1.431794
H    -1.150603  0.661120  3.764861
C    -1.477966  2.322001  2.445695
C    -2.153708  2.727318  1.134425
C    -1.626684  4.073147  0.618258
C    -2.250070  4.425675  -0.720387
N    -1.687528  5.744715  -1.249717
H    -0.386837  2.412258  2.348783
H    -1.792785  2.987193  3.264361
H    -3.246659  2.772550  1.255969
H    -1.958273  1.949242  0.380372
H    -1.840855  4.868852  1.351993
H    -0.529926  4.014182  0.514359
H    -3.336891  4.562314  -0.658650
H    -2.034646  3.675220  -1.491194
H    -2.092650  6.003142  -2.159348
H    -1.874920  6.511926  -0.589889
H    -0.666306  5.683173  -1.363295
N    -3.642063  0.964945  4.414388
C    -5.017135  0.845371  4.873360
H    -2.925925  1.203485  5.091129
H    -5.634158  0.565869  4.014000
H    -5.375289  1.798093  5.284270
H    -5.109455  0.067816  5.643214
