34
Energy: -18218.9855451 eV PBE+vdW (tier 2 basis)
C    -0.292397  2.079799  1.669831
C    -1.227499  1.645064  2.770988
O    -1.115314  2.084618  3.921003
H    0.466491  1.298662  1.526228
H    0.201272  3.004593  1.982062
H    -0.777494  2.222558  0.696634
N    -2.235339  0.742488  2.511752
C    -2.834247  0.227344  1.281550
C    -1.763877  -0.132053  0.214269
O    -0.739958  -0.708909  0.555913
H    -2.650147  0.400679  3.375314
H    -3.219337  -0.770680  1.548829
C    -4.077951  1.048191  0.857084
C    -3.896666  2.545068  0.499177
C    -4.434000  3.559000  1.534176
C    -3.544288  3.656541  2.759642
N    -4.046715  4.683081  3.767851
H    -4.808812  0.959006  1.677024
H    -4.562757  0.525105  0.018763
H    -4.433474  2.751587  -0.435763
H    -2.842821  2.774123  0.284881
H    -5.458863  3.273387  1.824746
H    -4.502552  4.546823  1.049990
H    -2.525613  3.973519  2.509229
H    -3.462773  2.717442  3.315290
H    -3.417035  4.712226  4.582555
H    -4.088711  5.627780  3.362362
H    -4.989727  4.448659  4.105498
N    -2.056445  0.186452  -1.077280
C    -1.204428  -0.224667  -2.184889
H    -2.960997  0.582564  -1.297369
H    -1.058912  0.609549  -2.881612
H    -1.636093  -1.076203  -2.728766
H    -0.237893  -0.527457  -1.771127
