34
Energy: -18220.1766809 eV PBE+vdW (tier 2 basis)
C    -0.027650  0.128313  -0.067249
C    -0.056392  0.233673  1.435332
O    0.734586  0.948638  2.066193
H    -0.308912  1.103173  -0.487524
H    -0.701727  -0.636231  -0.469970
H    0.998090  -0.080305  -0.392114
N    -1.003315  -0.509675  2.081551
C    -1.344272  -0.358967  3.498526
C    -0.334272  -1.061131  4.446713
O    -0.693304  -1.764357  5.429760
H    -1.602653  -1.113024  1.528674
H    -1.235284  0.717598  3.723644
C    -2.824085  -0.769972  3.641955
C    -3.454946  -0.856270  5.038395
C    -3.208015  0.331607  5.993385
C    -3.050139  -0.128961  7.437615
N    -1.713330  -0.821577  7.622466
H    -2.954788  -1.756847  3.170327
H    -3.390671  -0.056495  3.025103
H    -3.112250  -1.786420  5.507531
H    -4.538700  -0.978267  4.903158
H    -4.042504  1.044241  5.955151
H    -2.318906  0.915682  5.707131
H    -3.827064  -0.855613  7.704804
H    -3.097882  0.698703  8.154781
H    -0.995199  -0.147207  7.905652
H    -1.348068  -1.271190  6.686669
H    -1.749485  -1.543478  8.348698
N    0.944730  -0.822447  4.169121
C    2.054019  -1.372362  4.932398
H    1.125196  -0.135344  3.412592
H    2.387152  -0.672428  5.712353
H    2.894377  -1.561706  4.256556
H    1.746407  -2.310374  5.404341
