34
Energy: -18219.4266647 eV PBE+vdW (tier 2 basis)
C    0.161498  0.098761  0.050700
C    0.065339  0.216559  1.554367
O    1.025461  0.490078  2.268663
H    0.953286  -0.617702  -0.198465
H    -0.773701  -0.210001  -0.431214
H    0.463480  1.071200  -0.358774
N    -1.194435  0.026962  2.095874
C    -1.322271  -0.051008  3.549527
C    -2.667121  -0.636885  3.991711
O    -2.742976  -1.317304  5.020768
H    -1.854731  -0.504117  1.536384
H    -0.559194  -0.751223  3.926018
C    -1.084951  1.334976  4.230188
C    -0.087996  1.260767  5.391063
C    -0.635263  0.464473  6.586501
C    0.453264  0.037728  7.550012
N    -0.144284  -0.907691  8.591696
H    -2.042825  1.759603  4.568836
H    -0.685293  2.018258  3.473541
H    0.184981  2.277145  5.709584
H    0.831632  0.792863  5.005756
H    -1.156605  -0.435119  6.211967
H    -1.394879  1.063265  7.116678
H    1.248550  -0.529813  7.050400
H    0.908978  0.865407  8.108165
H    -0.873343  -0.430793  9.138890
H    -0.595688  -1.704696  8.119983
H    0.559256  -1.273056  9.246353
N    -3.742424  -0.330571  3.224178
C    -5.094437  -0.750053  3.566283
H    -3.624127  0.357627  2.487691
H    -5.048589  -1.731009  4.049260
H    -5.694285  -0.822739  2.653117
H    -5.576886  -0.044489  4.258037
