34
Energy: -18219.2789952 eV PBE+vdW (tier 2 basis)
C    -0.587824  -1.505083  0.561396
C    -0.067322  -0.823271  1.808605
O    0.893688  -1.234437  2.443470
H    -0.672439  -0.811987  -0.286805
H    -1.579644  -1.947308  0.732028
H    0.108548  -2.306090  0.301109
N    -0.703966  0.345668  2.214697
C    -2.022305  0.823718  1.824979
C    -2.066102  2.373642  1.764904
O    -3.092650  3.001116  2.036687
H    -0.324487  0.678926  3.098925
H    -2.182291  0.508472  0.781872
C    -3.188323  0.222737  2.637465
C    -3.095796  0.290294  4.168570
C    -3.227194  1.703733  4.759735
C    -3.432140  1.658628  6.262692
N    -3.606361  3.075931  6.805355
H    -3.260777  -0.838944  2.362953
H    -4.116346  0.702950  2.298082
H    -2.159090  -0.175270  4.514975
H    -3.906420  -0.337276  4.570961
H    -4.069778  2.221304  4.274598
H    -2.333293  2.304369  4.528451
H    -2.580019  1.226994  6.803326
H    -4.340629  1.113004  6.547885
H    -3.766375  3.090750  7.821288
H    -4.404708  3.538511  6.348146
H    -2.773461  3.646504  6.605301
N    -0.909349  2.948285  1.355307
C    -0.771343  4.370556  1.094210
H    -0.128374  2.326929  1.166113
H    -0.541512  4.552707  0.036049
H    0.027362  4.808236  1.707741
H    -1.723032  4.853436  1.337486
