34
Energy: -18219.1730412 eV PBE+vdW (tier 2 basis)
C    -2.534477  -0.630830  -1.006566
C    -1.511334  0.200691  -0.326510
O    -0.888835  1.047417  -1.130350
H    -3.055187  -0.021301  -1.754007
H    -2.031744  -1.447828  -1.545244
H    -3.253730  -1.062721  -0.305818
N    -1.210263  0.134618  0.935232
C    -1.746509  -0.736447  1.989119
C    -1.200146  -0.035686  3.266543
O    -0.319271  0.826725  3.120265
H    -0.510214  0.764144  1.416927
H    -2.845090  -0.687101  1.971138
C    -1.286207  -2.209133  1.868976
C    0.185052  -2.507290  2.183626
C    1.222518  -1.928138  1.215923
C    2.648133  -2.477995  1.443783
N    3.287727  -2.188250  2.719049
H    -1.533115  -2.560542  0.855604
H    -1.926124  -2.796516  2.542083
H    0.287924  -3.604288  2.189745
H    0.414677  -2.183742  3.211492
H    1.265274  -0.829906  1.305005
H    0.926531  -2.154949  0.175913
H    2.633641  -3.572038  1.316575
H    3.298052  -2.090966  0.644818
H    -0.193091  1.563312  -0.677482
H    3.350182  -1.188657  2.908049
H    2.825526  -2.635302  3.508277
N    -1.677948  -0.390355  4.467536
C    -2.714423  -1.362276  4.795004
H    -1.224985  0.090992  5.241331
H    -3.474473  -1.409096  4.007373
H    -3.214435  -1.042355  5.714921
H    -2.298139  -2.366360  4.955387
