34
Energy: -18220.2877007 eV PBE+vdW (tier 2 basis)
C    -2.342875  -2.163041  0.159817
C    -1.803374  -1.425876  1.361243
O    -0.631841  -1.093631  1.480256
H    -2.388080  -1.465197  -0.687455
H    -1.642333  -2.959565  -0.113804
H    -3.340811  -2.590130  0.316270
N    -2.730848  -1.144589  2.360106
C    -2.364777  -0.265272  3.455109
C    -2.610564  -0.927652  4.820796
O    -3.001446  -0.283810  5.827607
H    -3.713247  -1.320104  2.174376
H    -1.266194  -0.176844  3.343947
C    -2.969929  1.146061  3.367276
C    -2.074075  2.223988  4.019284
C    -2.827475  3.402813  4.659023
C    -3.153512  3.218671  6.136852
N    -4.033412  2.020864  6.394167
H    -3.983757  1.138327  3.797646
H    -3.103838  1.386219  2.304843
H    -1.390518  2.608714  3.251683
H    -1.423765  1.765442  4.780377
H    -3.743692  3.635688  4.092062
H    -2.212832  4.312531  4.604780
H    -3.661133  4.100266  6.547834
H    -2.237921  3.049021  6.718255
H    -3.571173  1.077757  6.051617
H    -4.938894  2.125038  5.923940
H    -4.224191  1.916894  7.396630
N    -2.341350  -2.234000  4.885894
C    -2.429232  -3.044723  6.091083
H    -2.048695  -2.675873  4.018583
H    -3.093456  -3.901566  5.924597
H    -1.435855  -3.413834  6.376525
H    -2.828905  -2.427588  6.899783
