34
Energy: -18219.6263287 eV PBE+vdW (tier 2 basis)
C    -0.160028  0.030363  2.661551
C    -0.670094  -1.067723  1.778421
O    0.117107  -1.914834  1.279021
H    0.248314  0.845098  2.045190
H    -0.923911  0.442012  3.328326
H    0.673303  -0.370197  3.249536
N    -1.995751  -1.160979  1.521125
C    -2.920032  -0.032896  1.366814
C    -4.141775  0.025841  2.313534
O    -4.447111  1.124627  2.763969
H    -2.245264  -2.007265  1.013913
H    -2.371584  0.877603  1.633342
C    -3.317511  0.065031  -0.120868
C    -2.103756  0.316213  -1.049925
C    -1.919734  -0.682077  -2.205142
C    -1.536515  -2.123128  -1.871129
N    -0.151768  -2.263259  -1.277491
H    -4.048863  0.876973  -0.220062
H    -3.853066  -0.853972  -0.411491
H    -1.177782  0.369863  -0.455049
H    -2.201674  1.312589  -1.499306
H    -1.175509  -0.282336  -2.913821
H    -2.854728  -0.744436  -2.782799
H    -2.229616  -2.592058  -1.159914
H    -1.558117  -2.726044  -2.786879
H    -0.100956  -2.126052  -0.169922
H    0.499087  -1.599399  -1.712576
H    0.221122  -3.202091  -1.456141
N    -4.865208  -1.095641  2.588425
C    -4.678228  -2.467628  2.146544
H    -5.636335  -0.910932  3.224256
H    -4.549687  -2.533819  1.055738
H    -5.585263  -3.031897  2.385519
H    -3.834096  -2.964545  2.647332
