34
Energy: -18219.1700741 eV PBE+vdW (tier 2 basis)
C    -0.813927  1.953270  0.393882
C    -0.123263  0.899765  1.238804
O    1.092533  0.795077  1.304532
H    -0.041912  2.509552  -0.143401
H    -1.383767  2.657393  1.017029
H    -1.509791  1.515242  -0.335722
N    -0.930634  0.042360  1.969506
C    -2.377736  -0.067216  1.950434
C    -2.863992  -0.409993  3.384467
O    -3.205756  -1.561358  3.667225
H    -0.407990  -0.635785  2.520068
H    -2.792437  0.903062  1.642884
C    -2.880873  -1.164435  0.992774
C    -4.396471  -1.107466  0.730516
C    -5.054671  -2.449933  0.383221
C    -4.518580  -3.158142  -0.854609
N    -3.157829  -3.794709  -0.582268
H    -2.617911  -2.110768  1.499680
H    -2.305689  -1.063241  0.055704
H    -4.607850  -0.374883  -0.063753
H    -4.901736  -0.737623  1.633126
H    -6.127765  -2.291480  0.202518
H    -5.001108  -3.128210  1.251843
H    -4.367371  -2.471065  -1.697244
H    -5.171745  -3.975173  -1.182603
H    -2.506385  -3.080593  -0.213697
H    -2.749911  -4.217559  -1.425587
H    -3.236764  -4.526381  0.136592
N    -2.859610  0.595294  4.291952
C    -2.417591  1.971832  4.106852
H    -3.119145  0.300246  5.229075
H    -2.938415  2.452724  3.267663
H    -1.333600  2.039720  3.941707
H    -2.666147  2.535913  5.010671
