34
Energy: -18219.8757272 eV PBE+vdW (tier 2 basis)
C    -0.745071  0.960566  -0.175522
C    -0.557887  0.702680  1.293196
O    0.586969  0.497033  1.755707
H    -0.103949  1.796547  -0.480612
H    -1.782400  1.179690  -0.452234
H    -0.407170  0.075990  -0.731286
N    -1.672614  0.706116  2.064196
C    -1.655438  0.353509  3.477669
C    -2.286949  -1.010729  3.857226
O    -1.635127  -1.736397  4.605385
H    -2.554443  0.897934  1.602832
H    -0.606502  0.135344  3.680193
C    -2.123502  1.457677  4.443873
C    -1.376901  2.804569  4.379540
C    0.153392  2.776059  4.175621
C    0.935225  1.724174  4.984960
N    1.814062  0.906819  4.061971
H    -2.035307  1.023209  5.450985
H    -3.197595  1.654173  4.311291
H    -1.613328  3.347604  5.305506
H    -1.789070  3.418656  3.566807
H    0.547933  3.775054  4.401174
H    0.364116  2.618198  3.109107
H    1.580180  2.169248  5.750341
H    0.277058  1.007044  5.488133
H    1.265669  0.646270  3.156468
H    2.150455  0.049729  4.514704
H    2.636611  1.442652  3.763855
N    -3.525813  -1.350666  3.414763
C    -4.449401  -0.608406  2.572131
H    -3.817496  -2.271995  3.730653
H    -4.234804  -0.729108  1.498367
H    -4.462271  0.459322  2.827915
H    -5.463068  -0.982655  2.749493
