34
Energy: -18220.3067711 eV PBE+vdW (tier 2 basis)
C    -0.110287  2.136828  0.898196
C    -0.030394  1.776294  2.359613
O    0.873959  1.064965  2.814161
H    -0.340010  1.225915  0.328904
H    0.872779  2.487443  0.564214
H    -0.867043  2.895201  0.667226
N    -1.017910  2.283455  3.161659
C    -1.287092  1.914661  4.554105
C    -0.229176  2.256528  5.608807
O    -0.642501  2.532950  6.775172
H    -1.691422  2.901850  2.725999
H    -2.130982  2.559342  4.831356
C    -1.717965  0.427293  4.722201
C    -3.233748  0.205669  4.629296
C    -4.037104  0.326128  5.936453
C    -4.120413  1.679409  6.653467
N    -2.978793  1.945325  7.600576
H    -1.340087  0.039721  5.680646
H    -1.195169  -0.152700  3.952164
H    -3.415929  -0.809385  4.249645
H    -3.662790  0.878495  3.868381
H    -3.690774  -0.436884  6.655117
H    -5.075428  0.045481  5.708665
H    -5.040100  1.717631  7.250315
H    -4.156334  2.520907  5.948936
H    -3.205407  2.736808  8.212702
H    -1.962660  2.202563  7.128350
H    -2.834002  1.135890  8.214065
N    1.052565  2.199142  5.294250
C    2.130247  2.453182  6.240828
H    1.257670  1.795161  4.360853
H    2.486014  1.514638  6.687872
H    1.772644  3.111674  7.037415
H    2.962475  2.930941  5.713657
