34
Energy: -18219.7811637 eV PBE+vdW (tier 2 basis)
C    -0.044942  0.046825  0.518731
C    -0.382131  -0.371282  1.935481
O    0.476714  -0.656396  2.755947
H    -0.245891  -0.771722  -0.186672
H    1.024483  0.270313  0.487074
H    -0.608802  0.925290  0.182761
N    -1.718309  -0.460376  2.304896
C    -2.939016  -0.154665  1.563503
C    -2.987378  -0.934770  0.238739
O    -3.092416  -0.370888  -0.878824
H    -1.824375  -0.722008  3.281369
H    -3.753143  -0.574955  2.178223
C    -3.215788  1.359631  1.431923
C    -4.693573  1.790015  1.414856
C    -5.502319  1.686067  0.110426
C    -4.966016  2.546995  -1.038770
N    -4.040235  1.764129  -1.942780
H    -2.656353  1.775605  0.580049
H    -2.756493  1.811913  2.320562
H    -4.731496  2.841852  1.737619
H    -5.232976  1.232988  2.196683
H    -6.523237  2.029464  0.325789
H    -5.612086  0.643152  -0.224897
H    -4.393834  3.401979  -0.657461
H    -5.772731  2.942486  -1.665576
H    -3.350045  2.366149  -2.402154
H    -4.570947  1.294336  -2.683869
H    -3.536783  0.958759  -1.393513
N    -2.904268  -2.272000  0.284523
C    -2.776910  -3.149197  1.444673
H    -2.904077  -2.710789  -0.633158
H    -3.067597  -4.158901  1.138823
H    -3.449952  -2.836695  2.251833
H    -1.748642  -3.171636  1.826489
