34
Energy: -18220.3146265 eV PBE+vdW (tier 2 basis)
C    0.179414  0.764793  0.034851
C    0.238562  0.097946  1.379685
O    1.173121  -0.706397  1.648713
H    1.114016  1.311766  -0.141254
H    0.110804  -0.012753  -0.737186
H    -0.668537  1.449362  -0.070229
N    -0.738870  0.376010  2.248435
C    -0.915291  -0.268546  3.537380
C    -2.383143  0.028637  3.927934
O    -2.963367  0.989143  3.423589
H    -1.502671  1.020945  2.019973
H    -0.771125  -1.350741  3.396892
C    0.070055  0.262541  4.618150
C    0.553050  -0.791881  5.628616
C    1.274029  -2.027661  5.060563
C    2.730755  -1.865567  4.637008
N    2.933987  -0.875242  3.513336
H    -0.409650  1.086408  5.164913
H    0.914308  0.730903  4.093528
H    -0.312692  -1.145068  6.208921
H    1.198712  -0.296625  6.371174
H    0.710407  -2.465477  4.223017
H    1.289128  -2.806751  5.836825
H    3.118028  -2.825390  4.275678
H    3.361860  -1.543490  5.475563
H    3.805020  -1.068499  3.008503
H    3.009649  0.079195  3.877517
H    2.110626  -0.860905  2.771184
N    -2.920658  -0.788506  4.861274
C    -4.273043  -0.617343  5.378902
H    -2.403765  -1.615528  5.136402
H    -4.634049  0.366617  5.066434
H    -4.949150  -1.385468  4.980797
H    -4.268939  -0.672690  6.473905
