34
Energy: -18220.171521 eV PBE+vdW (tier 2 basis)
C    0.034296  0.275487  0.094346
C    0.061579  0.258419  1.601899
O    0.900879  0.880499  2.262656
H    -0.621614  -0.484925  -0.345145
H    1.053986  0.143907  -0.283743
H    -0.309577  1.265928  -0.234037
N    -0.896915  -0.500731  2.218691
C    -1.217733  -0.443670  3.645990
C    -0.197436  -1.161676  4.563959
O    -0.520404  -1.614822  5.695613
H    -1.536537  -1.027751  1.633901
H    -1.149217  0.619724  3.943261
C    -2.681891  -0.928207  3.768607
C    -3.351648  -1.000780  5.145192
C    -3.308424  0.287204  5.997118
C    -3.091381  -0.008576  7.475509
N    -1.665080  -0.460982  7.707563
H    -2.745860  -1.932053  3.319206
H    -3.267099  -0.260086  3.118148
H    -2.912978  -1.837645  5.702162
H    -4.402085  -1.279011  4.981202
H    -4.246440  0.849283  5.898870
H    -2.522202  0.978915  5.654240
H    -3.744823  -0.821689  7.814891
H    -3.274800  0.863904  8.113571
H    -1.052931  0.346307  7.864582
H    -1.252595  -0.987200  6.830004
H    -1.580542  -1.066379  8.529963
N    1.055324  -1.228953  4.122081
C    2.139187  -1.810157  4.901368
H    1.286630  -0.617707  3.327835
H    1.786417  -2.711837  5.411363
H    2.515533  -1.103639  5.655373
H    2.957353  -2.071775  4.223713
