34
Energy: -18220.190587 eV PBE+vdW (tier 2 basis)
C    0.101796  -0.949563  0.530469
C    -0.092369  -0.752602  2.014163
O    0.787125  -0.950099  2.845016
H    -0.833168  -0.931910  -0.042568
H    0.617278  -1.901676  0.361475
H    0.759997  -0.155489  0.152593
N    -1.353150  -0.344200  2.420756
C    -1.508705  0.122271  3.795259
C    -1.069079  -0.971361  4.775682
O    -1.499733  -2.151946  4.704183
H    -1.938404  0.112827  1.727180
H    -0.844202  0.986307  3.943841
C    -2.944792  0.616074  4.096521
C    -4.084780  -0.379605  4.385066
C    -4.794697  -1.092604  3.218334
C    -4.040973  -2.155362  2.420360
N    -3.381142  -3.166730  3.311498
H    -3.237902  1.297158  3.280037
H    -2.855326  1.259475  4.983527
H    -3.757897  -1.108705  5.141711
H    -4.869088  0.203292  4.888794
H    -5.151319  -0.348106  2.489695
H    -5.708272  -1.554577  3.625826
H    -4.729493  -2.678123  1.744847
H    -3.228611  -1.726661  1.825190
H    -2.978319  -3.934916  2.765985
H    -4.048124  -3.579425  3.972326
H    -2.545770  -2.679211  3.891194
N    -0.294033  -0.623254  5.808513
C    0.482561  0.602988  5.972322
H    -0.070646  -1.401887  6.423542
H    -0.164493  1.484104  6.063684
H    1.056155  0.516643  6.899684
H    1.183668  0.736400  5.137776
