34
Energy: -18219.2901099 eV PBE+vdW (tier 2 basis)
C    -0.310796  -1.628009  1.176880
C    -1.183393  -0.685582  1.978708
O    -1.043238  -0.479394  3.180607
H    0.390849  -2.119463  1.855405
H    0.257878  -1.082263  0.410879
H    -0.911442  -2.392182  0.664809
N    -2.159785  -0.030470  1.262729
C    -3.123257  0.847163  1.914859
C    -2.450781  1.910218  2.820009
O    -2.891275  2.160035  3.948702
H    -2.287485  -0.249432  0.281618
H    -3.618095  1.414436  1.107039
C    -4.187847  -0.004679  2.644446
C    -5.299396  0.744844  3.412641
C    -5.153316  0.641746  4.949430
C    -5.310891  1.956953  5.683585
N    -6.697276  2.553696  5.434454
H    -4.638410  -0.643549  1.873203
H    -3.655707  -0.675527  3.331221
H    -6.276489  0.340804  3.108707
H    -5.289430  1.803688  3.100386
H    -4.137368  0.308059  5.195170
H    -5.840814  -0.115105  5.361168
H    -4.582446  2.686072  5.307970
H    -5.215581  1.857265  6.771232
H    -7.437283  1.934916  5.790926
H    -6.846713  2.666544  4.422070
H    -6.806714  3.473534  5.878736
N    -1.437560  2.650183  2.303211
C    -0.775540  2.585966  1.009427
H    -1.048622  3.292789  2.987212
H    -0.285019  3.549051  0.829537
H    -1.495753  2.427876  0.198470
H    -0.012803  1.795638  0.965631
