34
Energy: -18219.2798893 eV PBE+vdW (tier 2 basis)
C    -0.116262  -0.707034  0.485514
C    -0.007858  -0.026328  1.836148
O    1.035283  -0.009695  2.484761
H    -0.325559  0.029880  -0.302790
H    -0.913922  -1.461885  0.447058
H    0.840351  -1.189677  0.269897
N    -1.128318  0.600891  2.330836
C    -2.514718  0.515694  1.900958
C    -3.113157  1.923094  2.115137
O    -3.030936  2.431586  3.235190
H    -0.965865  1.208429  3.133343
H    -2.550493  0.215774  0.844693
C    -3.357095  -0.460724  2.757537
C    -2.966696  -1.948859  2.802677
C    -1.633292  -2.379900  3.457736
C    -1.213495  -1.661880  4.729485
N    -2.309498  -1.705154  5.791573
H    -4.394633  -0.408865  2.392679
H    -3.393698  -0.009282  3.766581
H    -2.976611  -2.362689  1.783852
H    -3.792572  -2.475628  3.310327
H    -0.788335  -2.242793  2.771790
H    -1.674227  -3.464636  3.646148
H    -1.003907  -0.600673  4.557782
H    -0.327224  -2.120793  5.181878
H    -2.007455  -1.251054  6.663144
H    -2.580045  -2.672323  6.013485
H    -3.149049  -1.211729  5.455053
N    -3.705586  2.500278  1.046399
C    -4.305635  3.826998  1.090716
H    -3.678633  2.012502  0.158442
H    -5.348339  3.789110  0.752158
H    -3.747463  4.529698  0.458473
H    -4.272597  4.176744  2.126710
