34
Energy: -18219.1280481 eV PBE+vdW (tier 2 basis)
C    -0.026623  -0.048330  0.047907
C    -0.561758  0.928606  1.071601
O    -0.078324  2.050599  1.211194
H    0.649077  -0.753970  0.550837
H    0.556894  0.511501  -0.688776
H    -0.794849  -0.647550  -0.454947
N    -1.577588  0.526867  1.926891
C    -2.701304  -0.392337  1.713166
C    -2.293872  -1.791555  1.184859
O    -2.859872  -2.298770  0.218490
H    -1.745317  1.244174  2.630772
H    -3.094634  -0.587508  2.724653
C    -3.894728  0.212197  0.937713
C    -3.784912  0.534683  -0.565361
C    -2.872111  1.681095  -1.043898
C    -2.960906  2.995624  -0.288471
N    -4.387489  3.542646  -0.323830
H    -4.214749  1.100345  1.515538
H    -4.719732  -0.506990  1.037859
H    -4.813094  0.726073  -0.921941
H    -3.485538  -0.380167  -1.091902
H    -3.069269  1.862943  -2.113348
H    -1.815476  1.394738  -1.003087
H    -2.323252  3.770605  -0.728687
H    -2.695537  2.901082  0.770703
H    -4.472485  4.428449  0.190554
H    -5.040930  2.865085  0.092636
H    -4.693253  3.706655  -1.292467
N    -1.323870  -2.398628  1.910949
C    -0.805245  -3.719752  1.593985
H    -0.904105  -1.878291  2.673973
H    0.258781  -3.671933  1.325247
H    -1.372659  -4.108699  0.743257
H    -0.926626  -4.399469  2.446700
