34
Energy: -18219.15663 eV PBE+vdW (tier 2 basis)
C    -0.017032  -0.223954  0.428694
C    -0.298112  -0.112780  1.914829
O    0.615886  -0.060484  2.727472
H    0.922679  0.300812  0.231309
H    -0.801125  0.155034  -0.234483
H    0.140375  -1.283864  0.183098
N    -1.604179  -0.149139  2.380546
C    -2.902515  -0.001825  1.727570
C    -3.020248  -0.716928  0.364499
O    -3.343325  -0.098166  -0.661150
H    -1.619425  -0.105303  3.397436
H    -3.616218  -0.534658  2.380357
C    -3.401659  1.455079  1.651587
C    -2.436572  2.478416  1.018096
C    -3.145701  3.497129  0.107505
C    -3.468935  2.866638  -1.238853
N    -4.373978  3.775222  -2.067305
H    -3.639220  1.777550  2.674968
H    -4.359885  1.435464  1.111600
H    -1.655435  1.975908  0.433325
H    -1.905575  3.026778  1.805301
H    -2.507190  4.382744  -0.037696
H    -4.070324  3.844976  0.599910
H    -3.973701  1.896150  -1.141916
H    -2.567922  2.707375  -1.843602
H    -4.582186  3.363222  -2.986263
H    -3.940877  4.695743  -2.223313
H    -5.268398  3.935187  -1.585128
N    -2.807969  -2.052217  0.339221
C    -2.468870  -2.952117  1.434572
H    -2.899304  -2.454805  -0.589373
H    -2.755976  -3.968354  1.145666
H    -3.023180  -2.694730  2.344735
H    -1.395495  -2.941321  1.667175
