34
Energy: -575226.620777 eV PBE+vdW (tier 2 basis)
C    1.495411  -2.636155  3.432379
C    0.726412  -1.472787  3.970725
O    1.170284  -0.699019  4.853745
H    0.944793  -3.223938  2.689985
H    1.783547  -3.288300  4.267981
H    2.428641  -2.275541  2.976532
N    -0.532700  -1.258268  3.491272
C    -1.341601  -0.152882  3.920684
C    -2.855363  -0.528923  4.181184
O    -3.715609  0.161596  3.634667
H    -0.891499  -1.879376  2.767048
H    -0.919820  0.187758  4.878795
C    -1.334306  1.012072  2.873882
C    -0.138193  1.858127  3.041778
C    0.898785  1.849110  2.073265
C    0.038543  2.621994  4.231114
C    2.076410  2.535033  2.276348
C    1.189156  3.334999  4.463120
C    2.216057  3.352228  3.456832
O    3.165436  4.249615  3.609244
H    -2.288859  1.545238  3.081119
H    -1.422059  0.606889  1.858711
H    0.769849  1.275340  1.155407
H    -0.760586  2.656239  4.972465
H    2.861923  2.546071  1.518713
H    1.316595  3.967543  5.341280
H    3.796568  4.282017  2.861010
N    -3.126696  -1.549156  5.005240
C    -2.208258  -2.371251  5.791461
H    -4.123123  -1.739665  5.103731
H    -2.773903  -2.790383  6.629888
H    -1.392370  -1.770521  6.209670
H    -1.798508  -3.206445  5.207941
Hg    3.138045  0.816744  4.667784
