34
Energy: -575226.862563 eV PBE+vdW (tier 2 basis)
C    0.376362  -0.901330  0.653649
C    0.249979  -0.631154  2.117134
O    1.266397  -0.520182  2.886621
H    1.000352  -1.793723  0.509808
H    0.895667  -0.063586  0.162980
H    -0.588195  -1.048086  0.157073
N    -0.970380  -0.539642  2.649533
C    -1.300287  -0.343507  4.047643
C    -2.691654  -1.040765  4.203060
O    -3.398295  -1.079983  3.193014
H    -1.809338  -0.752525  2.087191
H    -0.520740  -0.787009  4.678092
C    -1.521372  1.179196  4.410805
C    -0.237804  1.948478  4.421830
C    0.219112  2.635155  3.304216
C    0.582351  1.938178  5.591428
C    1.495791  3.254988  3.301388
C    1.785349  2.610757  5.675037
C    2.246320  3.331216  4.548761
O    3.283982  4.144042  4.546632
H    -1.995905  1.214354  5.400498
H    -2.236629  1.595709  3.690138
H    -0.389920  2.699520  2.402185
H    0.233007  1.397781  6.472842
H    1.776092  3.954190  2.509829
H    2.350105  2.631135  6.608067
H    3.734643  4.193013  5.414199
N    -3.053136  -1.510414  5.403852
C    -2.235362  -1.628497  6.609409
H    -3.977001  -1.940885  5.415942
H    -1.406628  -2.336488  6.474845
H    -2.873590  -2.006066  7.413289
H    -1.845363  -0.653436  6.930253
Hg    2.688089  1.220568  2.585757
