34
Energy: -575226.874281 eV PBE+vdW (tier 2 basis)
C    -3.456181  -1.928677  -1.933292
C    -2.577557  -0.902582  -1.310474
O    -2.099520  0.019949  -2.088373
H    -2.848564  -2.625441  -2.529716
H    -4.129010  -1.423324  -2.639525
H    -4.046549  -2.487616  -1.201473
N    -2.277027  -0.880802  -0.016294
C    -2.338714  -1.871679  1.053617
C    -2.513067  -0.999710  2.320455
O    -1.959244  0.115760  2.308796
H    -1.901703  -0.003162  0.389379
H    -3.159918  -2.578643  0.897320
C    -0.970463  -2.662880  1.163634
C    0.215240  -1.746189  0.979290
C    0.643840  -0.850117  2.006907
C    0.837612  -1.645356  -0.247333
C    1.569484  0.163806  1.796731
C    1.719980  -0.525739  -0.567480
C    2.119383  0.359178  0.522972
O    3.035036  1.259054  0.214956
H    -0.963949  -3.442058  0.390411
H    -0.948032  -3.170246  2.137684
H    0.255256  -0.978327  3.016107
H    0.644384  -2.379722  -1.032274
H    1.883238  0.794235  2.629715
H    2.441744  -0.632000  -1.384507
H    3.292320  1.816362  0.976656
N    -3.177721  -1.490403  3.370585
C    -3.931752  -2.743067  3.461632
H    -3.239362  -0.846913  4.159071
H    -4.155902  -2.928238  4.516044
H    -3.344979  -3.593654  3.095274
H    -4.882559  -2.682968  2.915103
Hg    -0.041598  0.431639  -1.581436
