34
Energy: -575226.717159 eV PBE+vdW (tier 2 basis)
C    -0.183673  -1.824170  1.693407
C    -1.064898  -0.717863  1.191235
O    -1.361538  -0.677728  -0.025549
H    0.649689  -1.966002  0.995997
H    -0.764971  -2.757479  1.701505
H    0.203251  -1.634718  2.701298
N    -1.499931  0.201444  2.092270
C    -2.478237  1.235220  1.790094
C    -1.906858  2.309497  0.824836
O    -2.447134  2.513669  -0.292447
H    -1.244510  0.047917  3.064782
H    -3.315925  0.783378  1.233604
C    -3.046453  1.839083  3.100991
C    -4.154799  2.835965  2.878755
C    -3.914382  4.224498  3.001951
C    -5.464029  2.389772  2.577222
C    -4.931835  5.143025  2.836924
C    -6.497252  3.284290  2.404332
C    -6.239952  4.677819  2.535727
O    -7.282141  5.482324  2.371248
H    -2.236914  2.303009  3.684347
H    -3.431806  0.997983  3.698701
H    -2.915776  4.580546  3.256226
H    -5.671988  1.321284  2.508160
H    -4.743462  6.211532  2.948661
H    -7.514411  2.959074  2.190423
H    -7.053957  6.425722  2.492741
N    -0.850302  3.013103  1.223244
C    -0.197975  4.045506  0.417504
H    -0.487597  2.847502  2.158905
H    -0.613276  5.036447  0.644701
H    -0.361348  3.829597  -0.642472
H    0.872892  4.044819  0.644217
Hg    -2.983504  0.464939  -1.434538
