34
Energy: -575226.727581 eV PBE+vdW (tier 2 basis)
C    -2.717090  -1.656629  -0.432639
C    -1.849515  -1.197229  0.704304
O    -0.633930  -0.983110  0.469879
H    -3.777987  -1.719121  -0.166318
H    -2.363679  -2.640665  -0.769074
H    -2.591106  -0.966113  -1.276312
N    -2.438187  -1.040415  1.912752
C    -1.849835  -0.417460  3.098776
C    -1.168819  -1.487196  3.989996
O    0.035416  -1.815051  3.792974
H    -3.422022  -1.290169  1.962193
H    -1.030471  0.229244  2.752115
C    -2.887701  0.465773  3.836132
C    -3.304564  1.681532  3.047080
C    -2.430197  2.788196  2.928678
C    -4.581907  1.751236  2.445431
C    -2.808492  3.923519  2.245604
C    -4.988412  2.878577  1.757930
C    -4.100197  3.981234  1.652966
O    -4.405683  5.110107  1.023997
H    -2.434606  0.787530  4.786037
H    -3.781135  -0.126689  4.089107
H    -1.451354  2.763712  3.409578
H    -5.277674  0.917806  2.549617
H    -2.156621  4.791997  2.162493
H    -5.983246  2.932528  1.313885
H    -5.311271  5.102502  0.655007
N    -1.867041  -2.078873  4.949605
C    -1.321686  -3.127797  5.820554
H    -2.810181  -1.753839  5.137653
H    -2.154271  -3.625825  6.324218
H    -0.648288  -2.692592  6.569633
H    -0.764934  -3.853607  5.218773
Hg    1.253018  -1.098247  1.906371
