34
Energy: -575226.817632 eV PBE+vdW (tier 2 basis)
C    0.240494  1.735177  0.385801
C    -0.109757  0.409194  0.983044
O    0.171874  -0.685562  0.443957
H    -0.132070  2.591493  0.958466
H    -0.159693  1.781594  -0.635801
H    1.333954  1.817479  0.301118
N    -0.787526  0.404952  2.173174
C    -1.144139  -0.799475  2.861542
C    -2.612317  -0.799133  3.441321
O    -2.833102  -1.450992  4.457223
H    -0.961677  1.299613  2.630418
H    -1.103959  -1.611138  2.120383
C    -0.177478  -1.121013  4.059042
C    1.036406  -1.796216  3.561228
C    2.260028  -1.113600  3.425723
C    0.948192  -3.152967  3.112273
C    3.351853  -1.722905  2.830836
C    2.026403  -3.814949  2.578194
C    3.271829  -3.124146  2.471154
O    4.413430  -3.708705  2.179231
H    -0.802705  -1.770652  4.708152
H    0.047726  -0.204591  4.618096
H    2.350336  -0.083923  3.771346
H    0.004275  -3.688446  3.225724
H    4.324858  -1.235396  2.764041
H    1.960186  -4.866956  2.296584
H    4.323106  -4.668976  2.008126
N    -3.532386  -0.110457  2.751812
C    -4.956628  -0.138423  3.098140
H    -3.265663  0.279289  1.852282
H    -5.058291  -0.160552  4.187881
H    -5.448337  -1.024692  2.675763
H    -5.428143  0.763593  2.695922
Hg    2.491922  -1.530516  0.060806
