34
Energy: -575226.368397 eV PBE+vdW (tier 2 basis)
C    -0.331482  -0.266593  -0.116203
C    -0.429816  0.561228  1.125437
O    -0.066024  1.768305  1.081834
H    -1.231304  -0.110194  -0.730965
H    -0.208604  -1.332565  0.103821
H    0.520462  0.087555  -0.708740
N    -0.872942  0.033888  2.293483
C    -1.997456  -0.880202  2.441039
C    -3.262207  0.010853  2.609090
O    -3.153162  1.196183  2.988410
H    -0.811667  0.694477  3.070654
H    -2.088056  -1.483642  1.527822
C    -1.754475  -1.793903  3.679617
C    -2.757276  -2.888430  3.903773
C    -2.837791  -3.990152  3.012353
C    -3.596136  -2.870446  5.047515
C    -3.702845  -5.034771  3.249440
C    -4.467019  -3.906780  5.312278
C    -4.525208  -5.007435  4.413791
O    -5.314989  -6.055772  4.592228
H    -1.685882  -1.158528  4.573564
H    -0.761089  -2.247653  3.529678
H    -2.179795  -4.036586  2.143586
H    -3.535476  -2.033901  5.743837
H    -3.761160  -5.900032  2.590261
H    -5.095268  -3.894664  6.204084
H    -5.839446  -6.000722  5.416741
N    -4.447601  -0.560239  2.362214
C    -5.729342  0.126911  2.511835
H    -4.465082  -1.543931  2.106955
H    -6.169114  -0.074613  3.498029
H    -6.414774  -0.222596  1.732968
H    -5.568442  1.204327  2.413878
Hg    -1.476067  3.259134  2.323792
