34
Energy: -575226.66339 eV PBE+vdW (tier 2 basis)
C    1.003044  -0.961120  2.168403
C    0.462582  0.066848  3.116092
O    1.197051  0.998829  3.513440
H    1.044314  -0.521487  1.160890
H    0.388550  -1.868349  2.133203
H    2.028735  -1.216910  2.455605
N    -0.831587  -0.051584  3.524377
C    -1.490931  0.999183  4.273779
C    -0.933551  1.112736  5.714657
O    -0.480537  2.211667  6.126855
H    -1.381499  -0.821937  3.153699
H    -1.227187  1.965726  3.814528
C    -3.044022  0.919286  4.219866
C    -3.714254  -0.349190  4.675385
C    -4.192264  -0.479262  6.002738
C    -3.957181  -1.405774  3.762352
C    -4.859343  -1.614298  6.414892
C    -4.625430  -2.551918  4.148593
C    -5.084342  -2.667113  5.487002
O    -5.750517  -3.720297  5.945845
H    -3.319598  1.115758  3.172432
H    -3.417027  1.771405  4.804302
H    -4.060289  0.343928  6.705592
H    -3.665401  -1.298355  2.715716
H    -5.248323  -1.719122  7.426957
H    -4.825493  -3.348576  3.430824
H    -5.906147  -4.398237  5.258538
N    -0.967922  0.036962  6.497203
C    -0.508594  0.018442  7.885335
H    -1.407111  -0.803725  6.130759
H    -1.340922  0.214911  8.574660
H    0.248529  0.796778  8.020775
H    -0.084717  -0.966983  8.103616
Hg    0.990426  3.248390  4.546824
