34
Energy: -575226.793343 eV PBE+vdW (tier 2 basis)
C    0.014083  -1.336661  1.132446
C    -0.555399  0.041393  0.999481
O    0.105239  0.993191  0.544473
H    0.829372  -1.303226  1.869173
H    0.463442  -1.631865  0.176471
H    -0.715726  -2.090652  1.446171
N    -1.855575  0.224334  1.395781
C    -2.513051  1.517085  1.590616
C    -2.770768  2.276331  0.260124
O    -3.962885  2.719298  -0.052109
H    -2.371224  -0.592541  1.707318
H    -3.517512  1.272249  1.961278
C    -1.787068  2.382611  2.693991
C    -2.716337  3.434005  3.237623
C    -3.699503  3.097582  4.211687
C    -2.763655  4.710995  2.696735
C    -4.740552  3.940277  4.571857
C    -3.923540  5.567317  2.911228
C    -4.885448  5.186163  3.930522
O    -5.811353  6.085825  4.205995
H    -0.868327  2.821906  2.287449
H    -1.490474  1.683447  3.486647
H    -3.631802  2.127026  4.707137
H    -1.970424  5.074567  2.039695
H    -5.437951  3.646913  5.357897
H    -3.888223  6.622887  2.629461
H    -6.430464  5.796841  4.906114
N    -1.780143  2.382509  -0.586265
C    -1.835682  3.003570  -1.901206
H    -0.877695  1.902443  -0.249442
H    -0.908138  3.565493  -2.060884
H    -2.709766  3.653509  -1.992470
H    -1.894678  2.220046  -2.670532
Hg    -4.657768  4.392133  1.076539
