34
Energy: -575226.923047 eV PBE+vdW (tier 2 basis)
C    -1.528029  -0.655113  1.814436
C    -2.266203  0.051193  2.914590
O    -1.911441  0.011879  4.094875
H    -2.030458  -0.645334  0.842699
H    -1.382327  -1.699706  2.121073
H    -0.525683  -0.216333  1.716885
N    -3.424615  0.778177  2.642067
C    -3.838474  1.411634  1.420127
C    -4.440633  0.463348  0.343142
O    -4.457805  0.879980  -0.831394
H    -3.816579  1.166664  3.501697
H    -4.680833  2.063749  1.698780
C    -2.768831  2.295109  0.691115
C    -3.243902  2.761610  -0.645204
C    -4.316168  3.715252  -0.747413
C    -2.452851  2.500064  -1.816699
C    -4.601736  4.332475  -1.930863
C    -2.721565  3.115236  -3.007847
C    -3.808726  4.036868  -3.083416
O    -4.143711  4.667932  -4.188883
H    -1.827410  1.745172  0.585245
H    -2.577670  3.161827  1.342894
H    -4.903271  3.963279  0.136780
H    -1.624852  1.795323  -1.746957
H    -5.405866  5.060691  -2.027494
H    -2.115662  2.913988  -3.892214
H    -3.568634  4.443975  -4.949210
N    -4.958803  -0.690496  0.738832
C    -5.671138  -1.617074  -0.145760
H    -4.941280  -0.877751  1.739343
H    -6.721783  -1.318615  -0.254646
H    -5.623659  -2.620206  0.287981
H    -5.194840  -1.618517  -1.131476
Hg    -0.720795  -1.956049  5.586165
