34
Energy: -575226.650739 eV PBE+vdW (tier 2 basis)
C    -3.495950  0.678892  0.707102
C    -2.604810  0.611956  1.914540
O    -1.377827  0.373686  1.737897
H    -4.563831  0.646047  0.949394
H    -3.245827  -0.148159  0.031911
H    -3.276441  1.609543  0.163908
N    -3.189033  0.799560  3.116050
C    -2.653009  0.656191  4.475554
C    -1.913685  1.922906  4.946461
O    -1.052635  2.520110  4.242741
H    -4.183398  1.002702  3.073191
H    -3.546935  0.548727  5.106500
C    -1.781519  -0.616676  4.720261
C    -2.492029  -1.919204  4.476623
C    -2.261327  -2.656797  3.289671
C    -3.374789  -2.444949  5.451206
C    -2.880831  -3.871013  3.073428
C    -4.011278  -3.650929  5.257919
C    -3.765619  -4.382028  4.061084
O    -4.395446  -5.543804  3.947836
H    -1.474792  -0.566737  5.776674
H    -0.869468  -0.575308  4.113320
H    -1.566791  -2.271883  2.543089
H    -3.542229  -1.902938  6.382855
H    -2.686235  -4.443740  2.165643
H    -4.684631  -4.076223  6.000862
H    -4.177443  -6.012414  3.117311
N    -2.225113  2.384933  6.156989
C    -1.583754  3.543074  6.782462
H    -3.019739  1.975831  6.641775
H    -2.113081  4.466658  6.512628
H    -0.548359  3.614289  6.437328
H    -1.611426  3.414775  7.868783
Hg    0.421278  1.562921  2.694000
