34
Energy: -575226.535401 eV PBE+vdW (tier 2 basis)
C    0.105687  -0.083546  0.164535
C    -0.033758  -0.169909  1.653189
O    0.909305  -0.354926  2.431120
H    0.866951  -0.795910  -0.170985
H    0.465890  0.922892  -0.094522
H    -0.836542  -0.262941  -0.365754
N    -1.286254  -0.038886  2.207324
C    -1.342457  0.097494  3.647291
C    -0.445202  -0.959940  4.336024
O    0.397513  -0.637297  5.280022
H    -2.090004  0.216155  1.641137
H    -0.859259  1.052183  3.929688
C    -2.819393  0.139307  4.147120
C    -2.888413  0.484134  5.616900
C    -2.397169  1.704662  6.073387
C    -3.289042  -0.466279  6.589424
C    -2.061077  1.895878  7.471086
C    -3.137514  -0.264945  7.956885
C    -2.518411  0.908053  8.430489
O    -2.342473  1.222991  9.701697
H    -3.326007  -0.813848  3.951719
H    -3.337739  0.906801  3.551738
H    -2.178153  2.521885  5.382598
H    -3.737551  -1.403108  6.254960
H    -1.809157  2.889509  7.848996
H    -3.504002  -1.010999  8.663369
H    -2.678191  0.539716  10.315526
N    -0.565977  -2.262462  4.120834
C    -1.245554  -2.974256  3.036385
H    0.099801  -2.817914  4.660736
H    -0.604694  -3.020568  2.145477
H    -2.192864  -2.498333  2.776631
H    -1.443366  -3.994163  3.381091
Hg    -0.121923  0.850568  6.708883
