34
Energy: -575226.578425 eV PBE+vdW (tier 2 basis)
C    0.539282  3.153886  1.996793
C    0.028868  1.914074  2.670863
O    -0.206972  0.890503  1.968193
H    0.484922  4.049634  2.625157
H    -0.027193  3.317242  1.072183
H    1.585576  2.985230  1.702670
N    -0.172635  1.979060  4.003610
C    -0.748580  0.997429  4.920382
C    0.260209  -0.090683  5.319062
O    1.148540  -0.497707  4.519230
H    0.063862  2.871882  4.426676
H    -0.998305  1.572202  5.822530
C    -2.079570  0.321074  4.423021
C    -3.211602  1.269592  4.171732
C    -3.514723  1.698902  2.857307
C    -4.015376  1.728207  5.247067
C    -4.571608  2.549359  2.615060
C    -5.077368  2.580126  5.032758
C    -5.367782  3.000028  3.705638
O    -6.374938  3.806082  3.399333
H    -2.367294  -0.387141  5.214357
H    -1.873848  -0.262225  3.518009
H    -2.920809  1.331388  2.020672
H    -3.805344  1.391012  6.262949
H    -4.833488  2.875535  1.609407
H    -5.698057  2.920985  5.862428
H    -6.900914  4.068450  4.181356
N    0.197786  -0.612031  6.547392
C    -0.570819  -0.148744  7.704384
H    0.865713  -1.368242  6.703202
H    -0.306614  -0.777138  8.559158
H    -1.650840  -0.246809  7.535207
H    -0.324436  0.890771  7.958427
Hg    0.760596  -1.227645  2.325497
