34
Energy: -575226.714649 eV PBE+vdW (tier 2 basis)
C    -2.012843  0.685016  -0.623221
C    -1.797037  -0.063881  0.661124
O    -0.906209  -0.949134  0.682814
H    -2.192185  -0.034910  -1.431124
H    -1.089752  1.227055  -0.870881
H    -2.843602  1.397636  -0.568743
N    -2.571939  0.278618  1.717242
C    -2.401061  -0.143959  3.109771
C    -3.180700  -1.458565  3.375382
O    -2.610010  -2.578232  3.277938
H    -3.267790  0.997048  1.534866
H    -1.340196  -0.404754  3.242811
C    -2.741861  1.033849  4.034078
C    -2.536626  0.871543  5.518873
C    -1.866279  -0.223531  6.106119
C    -3.004865  1.914752  6.360676
C    -1.663820  -0.284357  7.470591
C    -2.813318  1.878802  7.724514
C    -2.133932  0.772450  8.297229
O    -1.898441  0.646962  9.597621
H    -3.775332  1.382080  3.851525
H    -2.115797  1.882261  3.701750
H    -1.489997  -1.044420  5.496879
H    -3.519680  2.770235  5.921748
H    -1.148698  -1.121827  7.938786
H    -3.174639  2.689704  8.358218
H    -2.240494  1.402515  10.116039
N    -4.468530  -1.384637  3.691359
C    -5.323727  -2.555165  3.910457
H    -4.875250  -0.467401  3.848679
H    -5.212332  -2.928994  4.936426
H    -5.041009  -3.348125  3.211175
H    -6.363979  -2.263025  3.741218
Hg    -0.536070  -2.794606  2.112064
