34
Energy: -575226.440997 eV PBE+vdW (tier 2 basis)
C    -0.230596  1.070284  1.350087
C    -0.287782  0.547386  2.752565
O    0.147232  1.221474  3.706941
H    -0.857901  1.969253  1.277148
H    -0.561709  0.337522  0.605545
H    0.798617  1.379708  1.128835
N    -0.830723  -0.710475  2.937264
C    -1.033213  -1.174903  4.276898
C    0.232287  -1.821975  4.914582
O    0.811097  -1.216792  5.858793
H    -1.201692  -1.205220  2.130913
H    -1.045569  -0.221041  4.822632
C    -2.399404  -1.844673  4.686619
C    -2.886195  -0.875491  5.742070
C    -2.276265  -0.873973  6.994420
C    -3.628193  0.275337  5.344077
C    -2.191921  0.317007  7.745293
C    -3.683706  1.422785  6.111276
C    -2.954950  1.476125  7.322566
O    -2.978292  2.488646  8.169959
H    -2.251557  -2.856706  5.080400
H    -3.078590  -1.907762  3.827503
H    -1.740207  -1.752461  7.354168
H    -4.154967  0.259469  4.388641
H    -1.780277  0.327185  8.756367
H    -4.287415  2.275337  5.797445
H    -3.547251  3.225034  7.868122
N    0.688839  -2.987471  4.477215
C    0.175565  -3.815454  3.386094
H    1.540392  -3.311549  4.938050
H    0.259484  -4.868869  3.674082
H    0.758470  -3.651014  2.470539
H    -0.879978  -3.603638  3.192524
Hg    -0.054628  0.963916  6.330364
