34
Energy: -575226.574613 eV PBE+vdW (tier 2 basis)
C    -0.205819  -2.023308  0.174866
C    -0.268145  -1.443613  1.557332
O    0.480568  -1.920074  2.457763
H    -1.038003  -1.717355  -0.468487
H    -0.178311  -3.117188  0.247000
H    0.740412  -1.712681  -0.291785
N    -1.150607  -0.444644  1.765722
C    -1.519650  0.236443  3.004758
C    -0.505318  1.321314  3.398348
O    0.724346  1.209169  3.133332
H    -1.683425  -0.165364  0.947033
H    -2.472061  0.733867  2.776263
C    -1.776112  -0.713079  4.232139
C    -2.865241  -1.722239  4.030177
C    -4.226471  -1.338645  4.117897
C    -2.548960  -3.081288  3.780857
C    -5.236480  -2.261082  3.963777
C    -3.541581  -4.027357  3.629523
C    -4.901321  -3.624124  3.720777
O    -5.921786  -4.462001  3.601738
H    -2.048909  -0.050505  5.067661
H    -0.843153  -1.218270  4.504691
H    -4.486845  -0.300557  4.328752
H    -1.504439  -3.388483  3.731259
H    -6.288150  -1.987709  4.037886
H    -3.293224  -5.075762  3.458764
H    -5.637152  -5.385748  3.450972
N    -0.940513  2.415386  4.029396
C    -2.316075  2.880513  4.220249
H    -0.190973  3.052050  4.303643
H    -2.278374  3.841735  4.739825
H    -2.893888  2.184732  4.841686
H    -2.823486  3.033485  3.258314
Hg    2.067968  -0.641929  3.648356
