34
Energy: -575226.689199 eV PBE+vdW (tier 2 basis)
C    -0.201258  1.137725  -0.228116
C    -0.416307  -0.078761  0.612071
O    -0.127238  -1.241464  0.222898
H    0.857410  1.206825  -0.516219
H    -0.498346  2.071694  0.260801
H    -0.774695  1.022424  -1.158754
N    -0.969368  0.084488  1.845204
C    -1.344821  -1.007173  2.701656
C    -2.870662  -0.862482  3.089200
O    -3.647380  -1.485769  2.376212
H    -1.250971  1.026899  2.112548
H    -1.306514  -1.919934  2.100204
C    -0.388066  -1.171996  3.957177
C    0.870254  -1.817985  3.487363
C    1.957712  -1.072929  3.025051
C    0.927367  -3.243704  3.398555
C    3.074835  -1.705852  2.469180
C    2.038817  -3.911386  2.934343
C    3.162811  -3.155179  2.509779
O    4.341422  -3.669656  2.223709
H    -0.908728  -1.804222  4.687243
H    -0.193974  -0.192892  4.413978
H    1.951676  0.014971  3.089257
H    0.069535  -3.828975  3.733941
H    3.985525  -1.152548  2.233167
H    2.079970  -5.001516  2.937491
H    4.365419  -4.644663  2.309709
N    -3.197342  -0.048471  4.099223
C    -4.590430  0.162585  4.519414
H    -2.464942  0.342569  4.682177
H    -4.880584  -0.571033  5.282001
H    -5.243833  0.053701  3.648740
H    -4.685671  1.172993  4.928371
Hg    2.121376  -1.976284  -0.012573
