34
Energy: -575226.728283 eV PBE+vdW (tier 2 basis)
C    1.362096  -0.559871  2.405889
C    0.129026  -0.070521  1.702812
O    -0.125022  -0.529927  0.560288
H    1.368378  -1.657163  2.389258
H    1.435233  -0.209261  3.441280
H    2.243962  -0.227176  1.841450
N    -0.639098  0.835922  2.350124
C    -1.977884  1.284452  1.965694
C    -1.880233  2.607433  1.167605
O    -1.506938  2.593994  -0.040127
H    -0.286496  1.156148  3.247975
H    -2.369046  0.545833  1.249456
C    -2.925926  1.318874  3.191799
C    -3.225079  -0.049105  3.750650
C    -2.543561  -0.533754  4.889069
C    -4.219811  -0.859801  3.150220
C    -2.835676  -1.773195  5.420124
C    -4.534222  -2.101769  3.662241
C    -3.841533  -2.571874  4.809349
O    -4.082358  -3.746222  5.380172
H    -3.866471  1.791805  2.872846
H    -2.494018  1.948646  3.985913
H    -1.797404  0.089208  5.383494
H    -4.771114  -0.490573  2.284392
H    -2.334015  -2.154345  6.308529
H    -5.315696  -2.711318  3.206733
H    -4.795696  -4.243224  4.932326
N    -2.159175  3.759661  1.761114
C    -2.060811  5.061832  1.090210
H    -2.425748  3.752744  2.740659
H    -2.487286  4.989457  0.084340
H    -1.012068  5.374810  1.011952
H    -2.618622  5.796270  1.676895
Hg    -1.141691  0.606010  -1.255730
