34
Energy: -575226.416822 eV PBE+vdW (tier 2 basis)
C    0.368375  -0.146454  0.847156
C    -0.125814  -0.201118  2.258523
O    0.674320  -0.518102  3.177017
H    0.843234  0.829864  0.664749
H    -0.433796  -0.309591  0.119161
H    1.149449  -0.904576  0.716830
N    -1.425750  0.059469  2.555420
C    -2.218019  1.134663  1.972888
C    -2.064911  2.348423  2.944654
O    -1.631120  2.166580  4.102655
H    -1.621061  -0.046041  3.553810
H    -1.797774  1.396177  0.992569
C    -3.713754  0.720600  1.819795
C    -3.917736  -0.418701  0.863963
C    -3.928614  -0.189383  -0.536144
C    -4.125119  -1.736495  1.346221
C    -4.154579  -1.216839  -1.422949
C    -4.358031  -2.784156  0.481383
C    -4.379438  -2.532002  -0.919322
O    -4.608404  -3.469865  -1.825010
H    -4.277732  1.596822  1.467654
H    -4.108947  0.465998  2.813358
H    -3.786569  0.820985  -0.921620
H    -4.126965  -1.921982  2.420093
H    -4.189701  -1.057692  -2.499905
H    -4.536975  -3.792202  0.857997
H    -4.774589  -4.349221  -1.428403
N    -2.435689  3.550912  2.494904
C    -2.373932  4.776352  3.291297
H    -2.848170  3.619441  1.568100
H    -2.105888  5.612696  2.637523
H    -1.623055  4.654990  4.076748
H    -3.347140  4.981537  3.758105
Hg    0.460047  0.810174  5.198956
