25
Energy: -572018.7627239  eV PBE+vdW (tier 2 basis)
C    0.438363  0.178801  0.679956
C    -0.159388  0.718831  1.938614
O    0.465675  1.611034  2.596823
H    -0.292099  0.176868  -0.139802
H    1.297433  0.790651  0.397261
H    0.743740  -0.863718  0.842153
N    -1.329004  0.243671  2.423051
C    -2.530528  -0.236689  1.710785
C    -2.244038  -1.563571  0.960272
O    -1.324587  -2.275305  1.354615
H    -1.550170  0.622648  3.342376
H    -3.214051  -0.524523  2.522109
C    -3.212208  0.902041  0.889780
C    -2.685212  2.241447  1.467328
O    -3.012545  2.534112  2.655194
O    -1.803020  2.826881  0.781782
H    -4.302262  0.858744  0.996181
H    -2.935608  0.878540  -0.168126
N    -3.065249  -1.874732  -0.062829
C    -2.986464  -3.154699  -0.763335
H    -3.864086  -1.279224  -0.252605
H    -3.601355  -3.918597  -0.268684
H    -3.332787  -3.020822  -1.792977
H    -1.945682  -3.492338  -0.765711
Hg    -0.846868  3.565950  2.848791
