25
Energy: -572018.7996040  eV PBE+vdW (tier 2 basis)
C    -0.197354  -0.783190  0.129856
C    -0.289898  0.106621  1.327920
O    0.725295  0.754286  1.728632
H    -0.905053  -0.470160  -0.650295
H    0.817678  -0.734597  -0.271149
H    -0.442039  -1.818759  0.399894
N    -1.446093  0.201917  2.037630
C    -2.839311  0.148464  1.540734
C    -3.196316  -1.186247  0.833734
O    -3.600775  -1.180451  -0.328234
H    -1.338602  0.775060  2.874148
H    -3.455551  0.211150  2.446696
C    -3.194038  1.357353  0.611601
C    -2.049546  2.376723  0.723366
O    -1.178583  2.390868  -0.185680
O    -1.945644  2.978868  1.843412
H    -4.130201  1.820696  0.936996
H    -3.281338  1.010389  -0.422729
N    -3.032659  -2.299884  1.575353
C    -3.351115  -3.633485  1.075403
H    -2.772837  -2.199616  2.551372
H    -4.383564  -3.915426  1.322410
H    -2.663395  -4.361400  1.518413
H    -3.242038  -3.636325  -0.013719
Hg    0.376491  3.110721  1.493668
