25
Energy: -572019.1066266  eV PBE+vdW (tier 2 basis)
C    0.073231  0.688354  0.059510
C    -0.038022  0.273757  1.498645
O    0.875147  0.346227  2.313017
H    -0.639941  0.172798  -0.594445
H    -0.126179  1.768463  -0.003120
H    1.095437  0.516560  -0.291068
N    -1.282062  -0.214792  1.905715
C    -1.553878  -0.557451  3.271758
C    -1.249096  -2.056823  3.614607
O    -2.137287  -2.762015  4.091650
H    -1.940161  -0.511985  1.188312
H    -0.871565  0.047249  3.886722
C    -3.018259  -0.247367  3.585455
C    -3.345571  -0.360043  5.106384
O    -4.586752  -0.507205  5.326849
O    -2.439970  -0.251241  5.956337
H    -3.708377  -0.914161  3.058272
H    -3.255728  0.789986  3.307496
N    0.010696  -2.447565  3.356944
C    0.509031  -3.770130  3.711994
H    0.678065  -1.724102  3.088672
H    0.938923  -3.778728  4.723287
H    -0.322989  -4.481030  3.678701
H    1.280779  -4.066019  2.993702
Hg    -4.253600  -0.605414  7.633839
