25
Energy: -572019.2478696  eV PBE+vdW (tier 2 basis)
C    -1.777364  0.835244  0.993437
C    -1.542772  -0.117996  2.128036
O    -2.445167  -0.855236  2.565004
H    -2.413655  0.351123  0.244759
H    -0.854274  1.191619  0.523138
H    -2.329109  1.702658  1.383782
N    -0.286841  -0.147171  2.660581
C    0.074631  -0.907482  3.855020
C    -0.503565  -2.346998  3.795188
O    -1.387474  -2.815421  4.583090
H    0.383948  0.542935  2.336464
H    1.160849  -1.061944  3.780142
C    -0.138596  -0.137533  5.201732
C    -1.156456  1.023671  5.185173
O    -0.794925  2.171485  5.011942
O    -2.461925  0.805488  5.392960
H    0.815291  0.339598  5.453253
H    -0.349354  -0.849704  6.012198
N    0.043954  -3.187148  2.921043
C    1.173165  -2.965004  2.019303
H    -0.382922  -4.112451  2.920864
H    0.940578  -2.193592  1.276140
H    1.376018  -3.903676  1.497273
H    2.078080  -2.683422  2.573876
Hg    -2.884115  -1.218043  5.029605
