25
Energy: -572019.0923429  eV PBE+vdW (tier 2 basis)
C    0.238258  -0.181809  0.289688
C    0.004833  -0.103732  1.768174
O    0.957902  -0.220034  2.596611
H    -0.686174  -0.235661  -0.294337
H    0.863438  -1.056891  0.074693
H    0.798015  0.709568  -0.027624
N    -1.258774  0.076720  2.181407
C    -1.721000  0.220539  3.559589
C    -3.199598  -0.268060  3.559580
O    -3.798455  -0.321284  2.485961
H    -2.029144  0.034223  1.508140
H    -1.105737  -0.419027  4.205200
C    -1.665299  1.687781  4.057437
C    -0.174963  2.092576  4.030585
O    0.554788  1.636028  4.955624
O    0.229229  2.671335  2.981528
H    -2.032653  1.764899  5.085021
H    -2.241250  2.345659  3.400139
N    -3.765689  -0.572139  4.745711
C    -3.121174  -0.795137  6.035968
H    -4.731048  -0.883405  4.654802
H    -3.824998  -0.529783  6.832519
H    -2.235158  -0.164440  6.157513
H    -2.825640  -1.846275  6.163248
Hg    2.289733  1.573345  3.353056
