25
Energy: -572019.0722454  eV PBE+vdW (tier 2 basis)
C    -1.853525  2.500417  0.230817
C    -1.283193  1.957205  1.511325
O    -0.071918  1.959366  1.754982
H    -2.933317  2.682433  0.269854
H    -1.650470  1.776585  -0.571581
H    -1.330725  3.427365  -0.027818
N    -2.192158  1.438943  2.409772
C    -1.890574  0.691410  3.616173
C    -1.133386  1.426977  4.754631
O    -1.505528  1.192359  5.946284
H    -3.173113  1.485251  2.151945
H    -2.853044  0.434377  4.072744
C    -1.184484  -0.677834  3.233208
C    -0.788928  -1.281808  4.584506
O    0.380381  -0.982074  4.983748
O    -1.705960  -1.784418  5.290027
H    -0.297050  -0.494656  2.621385
H    -1.905522  -1.310713  2.706032
N    -0.138556  2.242236  4.446653
C    0.694279  2.890560  5.444724
H    0.116452  2.275421  3.437856
H    1.457368  2.192845  5.824675
H    0.076769  3.228373  6.283607
H    1.199224  3.743865  4.983256
Hg    -0.580022  -0.696483  7.112197
