25
Energy: -572018.6838933  eV PBE+vdW (tier 2 basis)
C    -0.434931  -0.170220  -0.185531
C    -0.208143  -0.216087  1.305825
O    0.881140  -0.483746  1.799691
H    0.493929  -0.453751  -0.686088
H    -0.716727  0.842278  -0.507177
H    -1.228871  -0.868911  -0.485248
N    -1.283188  0.022309  2.144204
C    -2.596840  0.441358  1.769481
C    -2.627272  1.924490  1.192399
O    -2.023980  2.806818  1.788801
H    -1.044587  0.063461  3.136956
H    -2.987222  -0.211840  0.971971
C    -3.586750  0.354783  2.922584
C    -3.246553  1.353856  4.071224
O    -2.075032  1.293127  4.542324
O    -4.163807  2.127545  4.436797
H    -3.562969  -0.642348  3.383514
H    -4.603444  0.561566  2.576784
N    -3.371796  2.131272  0.087214
C    -4.132582  1.163101  -0.698137
H    -3.403911  3.104950  -0.205596
H    -4.598072  1.700917  -1.529562
H    -4.937847  0.695129  -0.116223
H    -3.487193  0.386652  -1.130349
Hg    -2.633936  3.114313  6.034365
