25
Energy: -572018.7042666  eV PBE+vdW (tier 2 basis)
C    -0.237623  0.003214  -0.135142
C    -0.065347  -0.018690  1.348590
O    1.076109  -0.256563  1.855764
H    -0.495933  1.015953  -0.476571
H    0.702066  -0.298688  -0.604235
H    -1.046924  -0.667124  -0.449917
N    -1.121237  0.168413  2.181074
C    -2.307851  1.038212  2.004924
C    -3.129878  0.722803  0.728795
O    -3.186281  1.550319  -0.181486
H    -0.869509  0.035679  3.160147
H    -2.939759  0.813590  2.873194
C    -1.936535  2.559641  2.031512
C    -0.475456  2.671273  2.492005
O    0.411584  2.826421  1.611673
O    -0.248250  2.374003  3.711961
H    -2.583663  3.093007  2.734275
H    -2.034804  2.973680  1.023074
N    -3.763334  -0.469260  0.679177
C    -3.885667  -1.468430  1.737291
H    -4.322665  -0.597505  -0.160618
H    -4.413090  -2.333998  1.326148
H    -4.467888  -1.095255  2.592182
H    -2.903892  -1.811976  2.084801
Hg    1.885814  1.625678  3.066356
