25
Energy: -572018.8126261  eV PBE+vdW (tier 2 basis)
C    0.031395  -2.140330  2.827875
C    0.064615  -0.714333  3.318987
O    0.969123  -0.281961  4.022200
H    0.133460  -2.171064  1.734589
H    0.866225  -2.681756  3.279438
H    -0.907641  -2.639460  3.107568
N    -0.980021  0.131760  2.982486
C    -2.181229  -0.179293  2.265663
C    -1.938008  -0.190470  0.693670
O    -1.620888  0.847879  0.126720
H    -0.869236  1.095241  3.304363
H    -2.532859  -1.190031  2.534033
C    -3.324285  0.770657  2.595020
C    -3.042042  2.236170  2.159616
O    -1.936400  2.738549  2.515075
O    -3.950746  2.815493  1.513385
H    -3.487137  0.816445  3.680996
H    -4.249975  0.440387  2.114670
N    -2.120492  -1.378549  0.093078
C    -1.994216  -1.563776  -1.351148
H    -2.425200  -2.165324  0.655285
H    -1.606584  -2.567943  -1.551537
H    -2.963739  -1.443126  -1.852104
H    -1.296947  -0.817154  -1.742988
Hg    -2.589172  4.789988  1.410060
