25
Energy: -572018.9275750  eV PBE+vdW (tier 2 basis)
C    -0.292957  -1.966338  0.370609
C    0.137249  -0.675682  1.016226
O    1.275954  -0.440057  1.382760
H    -0.986921  -2.520380  1.018854
H    -0.793760  -1.794884  -0.592273
H    0.597936  -2.578174  0.208589
N    -0.831670  0.327930  1.201129
C    -2.253226  0.196518  1.106710
C    -2.938336  1.381827  0.367179
O    -4.099345  1.661335  0.665079
H    -0.456329  1.135959  1.702101
H    -2.490310  -0.709787  0.532216
C    -2.894233  0.071777  2.505338
C    -4.370711  -0.431323  2.414820
O    -5.094432  0.038360  3.345441
O    -4.692711  -1.267832  1.551327
H    -2.879094  1.017078  3.056169
H    -2.365519  -0.689672  3.098125
N    -2.207513  2.005776  -0.571111
C    -2.735870  3.077259  -1.407708
H    -1.279590  1.639208  -0.763149
H    -1.917364  3.748468  -1.686882
H    -3.201681  2.678156  -2.318986
H    -3.490739  3.631298  -0.840766
Hg    -6.997830  -1.042818  2.565200
