30
Energy: -244756.26328 eV PBE+vdW (tier 2 basis)
C    0.496637  -0.332861  0.064334
C    -0.303411  0.547568  0.977520
O    0.091300  1.802881  1.073822
H    0.108621  -1.354925  0.052248
H    1.548408  -0.349784  0.380533
H    0.476979  0.075790  -0.955249
N    -1.329530  0.043429  1.607736
C    -2.105614  0.957569  2.426745
C    -1.348540  1.350462  3.709765
O    -0.929928  2.544139  3.825333
H    -5.406762  -1.113836  4.062190
H    -2.220744  1.933112  1.921371
C    -3.569802  0.456887  2.645460
C    -3.848680  -1.011650  2.587098
N    -4.836492  -1.597465  3.373079
C    -3.382657  -2.022834  1.781966
C    -4.974973  -2.896371  3.075067
N    -4.090891  -3.162420  2.110249
H    -4.175046  0.922892  1.853469
H    -3.961574  0.862819  3.590279
H    -2.605738  -1.996873  1.031860
H    -5.670281  -3.592584  3.528065
H    -3.970015  -4.076136  1.680014
N    -1.072106  0.472696  4.674421
C    -1.334363  -0.962286  4.705935
H    -0.565815  0.870144  5.464132
H    -0.523804  -1.451011  5.256626
H    -1.347078  -1.355408  3.685313
H    -2.279786  -1.185902  5.218996
Ba    0.413682  3.813960  2.148622
