30
Energy: -244756.883952 eV PBE+vdW (tier 2 basis)
C    -0.802632  -0.907195  -0.106671
C    -0.497229  -0.989024  1.352482
O    0.598450  -1.428402  1.784058
H    -1.873436  -0.838249  -0.323161
H    -0.387017  -1.799500  -0.590833
H    -0.289525  -0.040073  -0.548641
N    -1.409507  -0.548751  2.270665
C    -2.305324  0.592752  2.124272
C    -1.505690  1.829117  1.649199
O    -0.256494  1.873328  1.833085
H    -1.232219  -0.847459  3.228457
H    -3.093412  0.360072  1.394284
C    -2.983095  0.848852  3.487324
C    -2.120298  1.314106  4.634563
N    -0.787838  0.962082  4.867161
C    -2.583115  2.036727  5.710465
C    -0.484897  1.466478  6.067754
N    -1.539611  2.116810  6.597914
H    -3.487348  -0.091916  3.763883
H    -3.789670  1.579533  3.348250
H    -3.553262  2.470288  5.922100
H    0.464836  1.373959  6.585596
H    -1.562687  2.574760  7.505297
N    -2.142778  2.838662  1.066405
C    -3.567553  2.993204  0.767197
H    -1.540118  3.626241  0.827038
H    -4.051684  2.021949  0.629058
H    -3.667758  3.557182  -0.165720
H    -4.078769  3.545089  1.566752
Ba    1.402682  0.554375  3.194766
