30
Energy: -244757.563218 eV PBE+vdW (tier 2 basis)
C    -0.316506  0.685739  -0.038969
C    -0.307023  0.594962  1.455392
O    0.578255  1.184395  2.130754
H    -0.364870  1.741789  -0.334966
H    -1.142987  0.143115  -0.509381
H    0.634661  0.289773  -0.420552
N    -1.269803  -0.150166  2.038685
C    -1.423602  -0.465134  3.470165
C    -1.965414  0.756628  4.239257
O    -1.287436  1.807181  4.372007
H    -1.939437  -0.583565  1.410252
H    -2.205566  -1.234020  3.498003
C    -0.122094  -1.112886  4.059952
C    0.212587  -0.844588  5.492552
N    0.926226  0.285872  5.889256
C    -0.001467  -1.644225  6.590334
C    1.128068  0.155277  7.198861
N    0.580678  -0.993833  7.651926
H    0.729690  -0.810689  3.439788
H    -0.217532  -2.195865  3.915906
H    -0.478888  -2.610629  6.697933
H    1.662311  0.846720  7.841633
H    0.622114  -1.333290  8.608913
N    -3.194740  0.635309  4.737340
C    -3.905418  1.676859  5.475991
H    -3.690892  -0.236368  4.575964
H    -4.238781  1.282338  6.442810
H    -4.780552  2.010352  4.904720
H    -3.232087  2.522064  5.633980
Ba    1.127509  2.414884  4.212495
