30
Energy: -244756.716906 eV PBE+vdW (tier 2 basis)
C    0.658141  1.789722  1.023308
C    0.474082  0.966101  2.255426
O    1.467543  0.660329  2.983469
H    1.416916  1.327181  0.379499
H    1.045071  2.774757  1.320615
H    -0.265623  1.928682  0.452482
N    -0.760151  0.561304  2.578455
C    -1.130787  -0.067261  3.853677
C    -0.831934  -1.574610  3.829304
O    0.340586  -1.966297  4.123140
H    -1.522738  0.884202  1.987310
H    -0.469912  0.372548  4.617854
C    -2.548536  0.353933  4.258945
C    -2.545073  1.816678  4.604946
N    -1.418912  2.385951  5.165794
C    -3.557174  2.745870  4.512444
C    -1.747591  3.642808  5.418764
N    -3.029227  3.899973  5.041083
H    -2.843463  -0.245723  5.135549
H    -3.286428  0.144870  3.466648
H    -4.577079  2.688368  4.151965
H    -1.105082  4.394214  5.864731
H    -3.515817  4.785825  5.137161
N    -1.798510  -2.417745  3.504872
C    -1.674170  -3.873306  3.432336
H    -2.713720  -2.021646  3.304584
H    -1.806443  -4.208106  2.396072
H    -2.444719  -4.336597  4.059247
H    -0.684981  -4.166604  3.789903
Ba    2.533731  -0.910422  4.463419
