30
Energy: -244756.777037 eV PBE+vdW (tier 2 basis)
C    0.244317  -0.329472  0.169460
C    0.044938  -0.170315  1.641488
O    1.055226  -0.049898  2.418727
H    0.793601  0.542905  -0.210599
H    -0.700021  -0.425008  -0.374917
H    0.869212  -1.211107  -0.024952
N    -1.195888  -0.148625  2.113619
C    -1.532562  0.133079  3.511533
C    -1.211944  -1.079721  4.418159
O    -0.111665  -1.033356  5.063811
H    -2.050094  -0.208329  1.480525
H    -0.812962  0.880082  3.877210
C    -2.930241  0.801562  3.623381
C    -4.012843  0.340751  2.690444
N    -3.729215  -0.078190  1.400304
C    -5.376089  0.350859  2.878062
C    -4.896745  -0.319493  0.819790
N    -5.912197  -0.067766  1.681399
H    -2.752359  1.873089  3.441033
H    -3.273432  0.732490  4.664627
H    -5.995305  0.627889  3.722440
H    -5.046574  -0.665350  -0.196729
H    -6.902335  -0.152346  1.472341
N    -1.983124  -2.149255  4.545058
C    -3.246070  -2.503870  3.895042
H    -1.617130  -2.829674  5.211245
H    -3.311732  -3.596091  3.869794
H    -3.279083  -2.125321  2.870598
H    -4.100906  -2.110854  4.457799
Ba    2.179725  -0.364261  4.506677
