30
Energy: -244757.500888 eV PBE+vdW (tier 2 basis)
C    -2.046403  1.317939  2.235540
C    -1.250179  0.099568  2.590692
O    -0.041984  -0.002811  2.259327
H    -3.085777  1.281358  2.577741
H    -2.031433  1.449471  1.145808
H    -1.557563  2.200107  2.670459
N    -1.873281  -0.867346  3.294786
C    -1.304345  -2.143366  3.749911
C    0.095914  -1.961909  4.382960
O    1.147080  -2.263005  3.758077
H    -2.853251  -0.711080  3.510440
H    -1.961194  -2.456612  4.572882
C    -1.349190  -3.307134  2.706496
C    -1.342980  -3.000478  1.241323
N    -0.228720  -2.586983  0.514077
C    -2.387164  -3.205058  0.368632
C    -0.610590  -2.549520  -0.762532
N    -1.904372  -2.915035  -0.884058
H    -2.271026  -3.868941  2.901351
H    -0.526340  -3.995983  2.945263
H    -3.399754  -3.555643  0.528226
H    0.006693  -2.280490  -1.613396
H    -2.420602  -2.992801  -1.755956
N    0.119876  -1.519575  5.636371
C    1.335784  -1.306774  6.420928
H    -0.767221  -1.317306  6.089176
H    1.127483  -1.545493  7.468461
H    1.665168  -0.261556  6.352647
H    2.124743  -1.966116  6.049156
Ba    1.918628  -1.379430  1.572215
