30
Energy: -244756.413647 eV PBE+vdW (tier 2 basis)
C    -0.102283  0.243062  -0.250898
C    -0.149675  0.315654  1.237982
O    0.898694  0.108999  1.937693
H    0.640911  0.959428  -0.626181
H    -1.068652  0.450266  -0.721856
H    0.234945  -0.758494  -0.551799
N    -1.301866  0.593185  1.850869
C    -1.441335  0.571731  3.309672
C    -2.879503  0.275569  3.796296
O    -3.019065  -0.529083  4.707753
H    -2.140317  0.668820  1.279071
H    -0.882746  -0.302975  3.669779
C    -0.859132  1.853124  3.982333
C    -0.410612  1.591558  5.382008
N    0.755248  0.873906  5.660730
C    -1.024647  1.916059  6.564429
C    0.823940  0.783383  6.993949
N    -0.229897  1.399858  7.560558
H    -1.608697  2.654866  3.977230
H    -0.019810  2.228871  3.377002
H    -1.941304  2.452102  6.775901
H    1.604961  0.299855  7.571052
H    -0.406992  1.470245  8.559288
N    -3.891620  0.940295  3.180605
C    -5.288384  0.748879  3.577920
H    -3.686784  1.741226  2.591183
H    -5.936663  0.943082  2.717817
H    -5.566880  1.418712  4.402416
H    -5.418274  -0.285572  3.908980
Ba    2.361837  -0.153851  3.818583
