30
Energy: -244756.399017 eV PBE+vdW (tier 2 basis)
C    0.905432  -0.208760  0.755689
C    -0.110691  0.493872  1.606160
O    -0.123764  1.813917  1.536769
H    0.750542  0.047296  -0.301472
H    0.849465  -1.293161  0.883473
H    1.916357  0.131441  1.018553
N    -0.914214  -0.213794  2.350170
C    -1.911023  0.521850  3.113489
C    -1.274442  1.388534  4.215176
O    -1.381089  2.654577  4.146997
H    -5.707323  -1.033781  3.266784
H    -2.438356  1.255447  2.475158
C    -2.978022  -0.446175  3.686801
C    -3.667139  -1.256328  2.636220
N    -5.045549  -1.437583  2.608759
C    -3.182746  -2.000401  1.587737
C    -5.397709  -2.248455  1.602510
N    -4.269568  -2.591896  0.975022
H    -3.724799  0.129783  4.252808
H    -2.511991  -1.140986  4.398012
H    -2.162067  -2.139783  1.259629
H    -6.402387  -2.563888  1.348558
H    -4.228442  -3.210219  0.168461
N    -0.575772  0.846188  5.211598
C    -0.200549  -0.551453  5.433769
H    -0.228490  1.525449  5.887363
H    -0.232805  -1.099174  4.487366
H    -0.852567  -1.021841  6.181645
H    0.827866  -0.576790  5.810657
Ba    -0.440155  3.975114  2.266140
