30
Energy: -244756.442937 eV PBE+vdW (tier 2 basis)
C    -1.468030  0.634215  -0.068847
C    -1.184801  0.638301  1.407493
O    -0.583794  1.531593  1.990776
H    -2.161542  1.455271  -0.295073
H    -1.897370  -0.305264  -0.434981
H    -0.537754  0.846355  -0.609142
N    -1.644209  -0.467707  2.125683
C    -1.515223  -0.451551  3.567414
C    -0.873952  -1.740974  4.060672
O    -1.519033  -2.541021  4.829313
H    -2.222039  -1.163506  1.665378
H    -0.804144  0.380242  3.741533
C    -2.834572  -0.075841  4.286103
C    -2.684126  0.446257  5.682831
N    -2.767473  -0.345733  6.829931
C    -2.460727  1.747786  6.064667
C    -2.599689  0.479035  7.869325
N    -2.409622  1.740542  7.438139
H    -3.550309  -0.913535  4.245609
H    -3.286443  0.716580  3.675778
H    -2.346291  2.655973  5.484922
H    -2.617041  0.208701  8.919633
H    -2.270512  2.554059  8.032054
N    0.358619  -2.050441  3.688903
C    1.273941  -1.285554  2.837839
H    0.686474  -2.960920  4.008880
H    2.297776  -1.501896  3.158006
H    1.092368  -0.210412  2.930828
H    1.156403  -1.579838  1.787201
Ba    -2.961649  -2.960534  6.673808
