30
Energy: -244756.291939 eV PBE+vdW (tier 2 basis)
C    0.651192  1.990441  0.551727
C    0.369760  1.100527  1.721912
O    1.264616  0.302754  2.155566
H    1.528205  2.616336  0.762522
H    -0.190786  2.638433  0.287401
H    0.901403  1.363465  -0.315220
N    -0.832408  1.159925  2.288856
C    -1.348580  0.309921  3.378259
C    -2.795703  0.806408  3.664164
O    -2.988475  1.598001  4.583195
H    -1.481266  1.842796  1.904082
H    -1.361639  -0.727997  3.013423
C    -0.527308  0.338452  4.695830
C    0.154984  1.615055  5.083034
N    1.541946  1.768799  5.000837
C    -0.385269  2.758383  5.619635
C    1.813874  2.984512  5.487592
N    0.674809  3.599051  5.862542
H    0.208431  -0.480823  4.661278
H    -1.225417  0.055167  5.494593
H    -1.414233  3.015703  5.836594
H    2.794436  3.436488  5.589886
H    0.612453  4.525018  6.277668
N    -3.769852  0.373364  2.830873
C    -3.702750  -0.669211  1.807863
H    -4.691507  0.734863  3.069740
H    -4.625265  -0.630939  1.220961
H    -3.622218  -1.673912  2.246432
H    -2.869719  -0.505564  1.112650
Ba    3.000890  -0.041305  3.771195
