30
Energy: -244756.581063 eV PBE+vdW (tier 2 basis)
C    -0.005784  1.532674  1.142772
C    -0.034793  0.796015  2.444852
O    0.911753  0.960114  3.297106
H    -0.897949  1.356628  0.533851
H    0.877043  1.205296  0.575489
H    0.105190  2.610408  1.319431
N    -1.044126  -0.020359  2.681223
C    -1.265962  -0.916063  3.808290
C    -2.652698  -1.553057  3.475623
O    -3.379379  -0.977601  2.660964
H    -1.866900  -0.044247  2.052682
H    -0.486636  -1.693630  3.814188
C    -1.278128  -0.227794  5.207212
C    -1.893133  1.135520  5.260961
N    -1.124956  2.292538  5.402075
C    -3.219455  1.488820  5.199188
C    -1.988990  3.311842  5.431391
N    -3.252153  2.858266  5.307181
H    -0.246219  -0.188073  5.587173
H    -1.803161  -0.897878  5.902299
H    -4.118376  0.895618  5.085413
H    -1.747092  4.362476  5.550216
H    -4.090548  3.433527  5.311816
N    -2.963312  -2.680269  4.135141
C    -4.222207  -3.401137  3.942250
H    -2.253207  -3.122563  4.710227
H    -4.039634  -4.361980  3.445639
H    -4.875625  -2.791840  3.312424
H    -4.705128  -3.581047  4.909637
Ba    1.532566  2.240794  5.190286
