30
Energy: -244756.552761 eV PBE+vdW (tier 2 basis)
C    -0.148885  -1.033104  2.407656
C    0.036570  0.384607  1.967965
O    1.167944  0.950931  2.066708
H    0.540157  -1.229943  3.236450
H    0.114622  -1.724141  1.591556
H    -1.174726  -1.250935  2.722366
N    -1.002242  1.076343  1.448862
C    -1.946730  0.492009  0.499990
C    -1.190272  0.329817  -0.863767
O    0.075583  0.563297  -0.909543
H    -0.797160  2.064522  1.294941
H    -2.202915  -0.518708  0.848986
C    -3.244827  1.336837  0.436172
C    -4.454455  0.584552  -0.029446
N    -4.430496  -0.203558  -1.164745
C    -5.719650  0.564132  0.509826
C    -5.653814  -0.692214  -1.314656
N    -6.459152  -0.244777  -0.321800
H    -3.073298  2.221404  -0.200149
H    -3.438449  1.708504  1.450627
H    -6.149092  1.046537  1.379026
H    -5.986895  -1.355714  -2.104445
H    -7.443299  -0.468966  -0.210686
N    -1.880918  -0.053538  -1.902510
C    -1.303413  -0.261174  -3.226434
H    -2.950978  -0.213483  -1.757411
H    -2.108161  -0.546215  -3.909681
H    -0.553867  -1.062738  -3.206127
H    -0.832508  0.658034  -3.597213
Ba    2.267166  1.230426  -0.133469
