30
Energy: -244756.675029 eV PBE+vdW (tier 2 basis)
C    -0.006097  -1.297138  0.280760
C    -0.290274  -0.903941  1.699443
O    0.730968  -0.514230  2.423812
H    0.442722  -0.451585  -0.258207
H    -0.910235  -1.625289  -0.239693
H    0.730248  -2.111913  0.260893
N    -1.521897  -0.960480  2.143073
C    -1.745807  -0.505550  3.519805
C    -1.011455  -1.371941  4.559788
O    -0.109091  -0.840338  5.282499
H    -2.979024  -0.464239  1.226233
H    -1.310642  0.500126  3.659882
C    -3.262094  -0.405711  3.844250
C    -4.042378  0.345463  2.815534
N    -3.827327  0.116740  1.467472
C    -5.077015  1.243332  2.893940
C    -4.674349  0.841227  0.737303
N    -5.447028  1.526899  1.593455
H    -3.395808  0.074219  4.822055
H    -3.697542  -1.411267  3.928694
H    -5.579158  1.685190  3.744797
H    -4.734553  0.877742  -0.343404
H    -6.198370  2.153813  1.317414
N    -1.281587  -2.667643  4.703255
C    -2.191311  -3.525509  3.942051
H    -0.758050  -3.115229  5.454827
H    -3.129410  -3.687700  4.489001
H    -1.707009  -4.497017  3.793433
H    -2.387389  -3.085835  2.960601
Ba    1.985964  0.032805  4.305031
