30
Energy: -244756.480742 eV PBE+vdW (tier 2 basis)
C    -1.527546  -0.651342  -0.185161
C    -1.863412  -0.428286  1.262636
O    -2.556196  -1.174317  1.933384
H    -0.892389  -1.544062  -0.264973
H    -1.016913  0.196027  -0.657339
H    -2.450967  -0.871692  -0.733900
N    -1.342668  0.746901  1.845038
C    -1.465836  0.891726  3.277074
C    -2.156984  2.189121  3.674086
O    -2.015889  2.663484  4.853841
H    -0.603162  1.244362  1.356150
H    -2.189449  0.085658  3.536555
C    -0.172109  0.571002  4.069111
C    0.985671  1.506547  3.909955
N    1.182438  2.623825  4.725874
C    2.026684  1.430125  3.014818
C    2.318923  3.193391  4.315298
N    2.845879  2.501680  3.286509
H    0.132983  -0.434183  3.749990
H    -0.427457  0.448297  5.134537
H    2.266238  0.700658  2.250601
H    2.784116  4.081309  4.729973
H    3.716988  2.721932  2.810582
N    -2.953089  2.747330  2.782448
C    -3.821728  3.899657  2.993577
H    -2.966863  2.280365  1.874243
H    -4.827807  3.662433  2.629762
H    -3.442740  4.770566  2.443952
H    -3.871254  4.129155  4.060706
Ba    -0.557788  3.217705  6.638218
