30
Energy: -244756.422958 eV PBE+vdW (tier 2 basis)
C    -0.270743  0.939734  -0.000816
C    -0.249189  0.424582  1.399430
O    0.850679  0.096393  1.960065
H    0.177187  0.189002  -0.666358
H    0.352604  1.841542  -0.067894
H    -1.279113  1.176263  -0.355651
N    -1.393128  0.301662  2.072225
C    -1.466852  -0.212060  3.445016
C    -2.940161  -0.615942  3.774935
O    -3.593520  0.069329  4.551926
H    -2.254199  0.600817  1.618955
H    -0.830064  -1.110050  3.484151
C    -0.981099  0.833174  4.476671
C    -0.427892  0.210117  5.714294
N    0.871329  -0.304038  5.778126
C    -1.045005  0.008804  6.922865
C    1.016512  -0.792336  7.015831
N    -0.117292  -0.618975  7.721844
H    -1.845183  1.457917  4.738010
H    -0.239968  1.501874  4.011791
H    -2.043996  0.254850  7.262010
H    1.904874  -1.258979  7.427690
H    -0.257985  -0.896223  8.689972
N    -3.430465  -1.711581  3.145598
C    -2.720346  -2.690827  2.329252
H    -4.394229  -1.920953  3.397263
H    -3.457077  -3.377530  1.902171
H    -2.011814  -3.289149  2.921160
H    -2.190966  -2.221985  1.489825
Ba    2.493191  -0.169897  3.691824
