30
Energy: -244756.226583 eV PBE+vdW (tier 2 basis)
C    -0.073594  -0.058456  -0.086019
C    0.043848  0.360807  1.357815
O    0.991163  0.957992  1.825551
H    0.697422  0.468215  -0.655135
H    -1.058134  0.168664  -0.516610
H    0.108695  -1.138078  -0.198240
N    -1.050028  0.071050  2.218211
C    -1.925389  -1.074052  2.083694
C    -3.334023  -0.729182  2.591668
O    -4.113126  -1.642477  3.027141
H    -0.788012  0.304217  3.178354
H    -2.056790  -1.268593  1.006112
C    -1.344687  -2.381565  2.695378
C    -1.031569  -2.337898  4.158043
N    -1.932545  -2.736910  5.148726
C    0.134608  -1.929320  4.761690
C    -1.302040  -2.570551  6.315760
N    -0.062578  -2.083397  6.113867
H    -0.418652  -2.592280  2.144279
H    -2.007318  -3.228505  2.454708
H    1.069355  -1.566911  4.349035
H    -1.696642  -2.792734  7.301470
H    0.620241  -1.882790  6.840518
N    -3.691572  0.536251  2.508228
C    -5.001151  1.095104  2.823564
H    -2.946923  1.158909  2.181463
H    -5.315048  1.755024  2.007110
H    -4.952549  1.681047  3.750262
H    -5.728493  0.286776  2.932552
Ba    -4.387958  -3.489751  4.513561
