30
Energy: -244756.967373 eV PBE+vdW (tier 2 basis)
C    -0.760499  -0.193693  -0.672087
C    -0.573860  -0.026595  0.799306
O    0.526072  0.347949  1.286702
H    -1.777816  -0.487293  -0.950974
H    -0.053483  -0.950501  -1.038395
H    -0.504391  0.749285  -1.173001
N    -1.630083  -0.285566  1.617328
C    -1.461576  -0.099586  3.048410
C    -0.875196  -1.346200  3.742473
O    0.334356  -1.285744  4.108597
H    -2.513913  -0.572527  1.207887
H    -0.636237  0.609809  3.063646
C    -2.515185  0.696012  3.826345
C    -1.821893  1.454510  4.936320
N    -0.466880  1.797492  4.906226
C    -2.395778  1.989794  6.063859
C    -0.258264  2.534104  5.999500
N    -1.394343  2.668283  6.714456
H    -3.323659  0.081914  4.240867
H    -2.980772  1.408555  3.126786
H    -3.411183  1.959391  6.439693
H    0.680824  2.983157  6.305803
H    -1.493457  3.186750  7.583043
N    -1.589290  -2.449208  3.932690
C    -2.959985  -2.749877  3.528364
H    -1.071607  -3.206094  4.381571
H    -2.962668  -3.516487  2.742964
H    -3.464151  -1.855559  3.154517
H    -3.523661  -3.126205  4.390119
Ba    1.771580  0.690129  3.508983
