30
Energy: -244756.75542 eV PBE+vdW (tier 2 basis)
C    -0.023419  -0.729177  0.469232
C    -0.258022  -0.420878  1.911351
O    0.708744  -0.027588  2.654490
H    0.419330  0.148219  -0.020757
H    -0.941576  -1.014892  -0.052960
H    0.707094  -1.545492  0.385322
N    -1.483979  -0.563318  2.402582
C    -1.837044  -0.134298  3.760377
C    -1.089423  -0.962418  4.820686
O    -0.199857  -0.379965  5.524401
H    -2.328780  -0.642368  1.755006
H    -1.462659  0.892425  3.900356
C    -3.376988  -0.112239  3.966496
C    -4.132595  0.417624  2.787684
N    -3.922540  -0.125157  1.528086
C    -5.140358  1.351485  2.724724
C    -4.784613  0.472952  0.719380
N    -5.539608  1.365317  1.408326
H    -3.587123  0.493483  4.856775
H    -3.740279  -1.123686  4.190627
H    -5.609358  1.971989  3.478203
H    -4.897087  0.291940  -0.343652
H    -6.287170  1.933178  1.021507
N    -1.331050  -2.253776  5.011776
C    -2.226521  -3.172227  4.302573
H    -0.799305  -2.658244  5.782880
H    -1.716354  -4.136677  4.202436
H    -2.457462  -2.800099  3.302255
H    -3.154043  -3.326125  4.868522
Ba    1.847042  0.645012  4.656313
