30
Energy: -244756.286528 eV PBE+vdW (tier 2 basis)
C    -0.847800  -3.744993  0.961234
C    -0.705831  -2.261771  0.762207
O    0.015702  -1.835585  -0.199582
H    -0.216171  -4.085159  1.795728
H    -0.510760  -4.256922  0.055370
H    -1.881442  -4.043024  1.179587
N    -1.256771  -1.319256  1.562145
C    -1.863036  -1.680866  2.832475
C    -3.357282  -1.363477  2.695540
O    -3.699981  -0.772395  1.591705
H    -2.808979  -0.742771  1.087980
H    -1.764597  -2.751531  3.072919
C    -1.222088  -0.850118  3.984504
C    0.232137  -1.134788  4.199170
N    1.237608  -0.725519  3.323943
C    0.808412  -1.773643  5.272057
C    2.386652  -1.117720  3.874520
N    2.163011  -1.752022  5.044821
H    -1.750622  -1.041634  4.928471
H    -1.373755  0.218575  3.763146
H    0.382259  -2.212275  6.166138
H    3.381645  -0.961389  3.471274
H    2.877379  -2.130600  5.660836
N    -4.257683  -1.643788  3.599992
C    -5.696187  -1.354293  3.504721
H    -3.937124  -2.119101  4.441131
H    -6.256373  -2.275428  3.699626
H    -5.928013  -0.984619  2.503653
H    -5.966793  -0.598547  4.251675
Ba    0.806597  0.252432  0.824573
