30
Energy: -244756.376654 eV PBE+vdW (tier 2 basis)
C    0.500556  0.395113  -1.126404
C    -0.015203  0.793577  0.216130
O    0.796083  0.959296  1.196904
H    1.252000  1.120200  -1.465069
H    -0.291788  0.316939  -1.877144
H    1.007333  -0.576097  -1.037516
N    -1.315642  0.961055  0.383882
C    -1.998446  1.162156  1.650974
C    -3.343098  0.386977  1.451963
O    -3.694775  0.159020  0.293397
H    -1.995600  0.687817  -0.348393
H    -1.391162  0.711000  2.449496
C    -2.329590  2.652713  1.972096
C    -1.354387  3.718251  1.575837
N    -0.068641  3.887566  2.093840
C    -1.630058  4.772782  0.736959
C    0.395061  5.028020  1.568496
N    -0.519581  5.580645  0.748854
H    -2.538981  2.725312  3.050050
H    -3.275071  2.900421  1.470686
H    -2.515588  5.017846  0.162769
H    1.359637  5.486830  1.763891
H    -0.414089  6.457762  0.245547
N    -4.069348  0.043518  2.530869
C    -3.782796  0.253264  3.943304
H    -4.954900  -0.400933  2.294507
H    -4.257937  -0.545944  4.521652
H    -4.169248  1.216202  4.306970
H    -2.704998  0.195954  4.138842
Ba    1.678746  2.128960  3.033286
