30
Energy: -244756.955767 eV PBE+vdW (tier 2 basis)
C    -1.823401  -2.779146  2.119492
C    -0.714476  -2.082945  1.401737
O    0.238031  -2.708611  0.871994
H    -2.525509  -3.214814  1.392991
H    -2.374893  -2.126576  2.803678
H    -1.390865  -3.617146  2.679867
N    -0.729360  -0.721503  1.272189
C    -1.906526  0.116867  1.078945
C    -2.794804  -0.477470  -0.044462
O    -2.286832  -1.219637  -0.927370
H    0.158874  -0.306075  0.995537
H    -2.491823  0.172768  2.009903
C    -1.430784  1.545008  0.736278
C    -0.706243  1.770116  -0.567919
N    0.144003  0.868453  -1.213259
C    -0.660157  2.975635  -1.230154
C    0.684267  1.545729  -2.231936
N    0.221286  2.810771  -2.268855
H    -0.788028  1.866212  1.572961
H    -2.298487  2.216602  0.763662
H    -1.153811  3.920854  -1.038223
H    1.411258  1.168203  -2.944431
H    0.490200  3.524485  -2.941099
N    -4.079904  -0.148126  -0.022716
C    -5.074232  -0.554072  -1.016655
H    -4.407017  0.428886  0.748758
H    -5.914785  -1.046065  -0.513915
H    -4.610403  -1.248888  -1.720127
H    -5.445284  0.324981  -1.557491
Ba    0.071260  -1.883693  -1.550834
