30
Energy: -244757.082599 eV PBE+vdW (tier 2 basis)
C    0.007705  0.627127  -0.020677
C    -0.061811  0.550237  1.470221
O    0.915623  0.966936  2.183118
H    0.908781  0.112839  -0.378614
H    0.103762  1.682402  -0.312782
H    -0.875194  0.201535  -0.507407
N    -1.161675  0.055278  2.025417
C    -1.446173  0.022644  3.466379
C    -0.719992  -1.169047  4.122044
O    0.492510  -1.024966  4.478901
H    -1.941542  -0.349740  1.446094
H    -0.993490  0.916379  3.921431
C    -2.973918  0.095471  3.683368
C    -3.769889  -0.928819  2.926564
N    -3.517508  -1.161650  1.581908
C    -4.853516  -1.682171  3.328761
C    -4.431409  -2.030168  1.180383
N    -5.256503  -2.366543  2.205414
H    -3.287528  1.102930  3.368196
H    -3.187440  0.031522  4.758394
H    -5.380095  -1.757152  4.272750
H    -4.532936  -2.434458  0.179112
H    -6.051911  -2.995456  2.146476
N    -1.378003  -2.303174  4.281451
C    -0.830708  -3.523220  4.869817
H    -2.345766  -2.321331  3.944552
H    0.056544  -3.278265  5.458777
H    -0.561053  -4.239087  4.082325
H    -1.586495  -3.976936  5.519455
Ba    2.386629  0.457880  3.997171
