17
Energy: -10917.8379054 eV PBE+vdW (tier 2 basis)
N    -0.821336  0.194030  0.970025
C    -0.097386  -0.703276  1.889642
C    1.269254  -0.169097  2.294695
O    1.741832  -0.265989  3.409273
H    -1.770421  0.320934  1.315531
H    -0.652440  -0.814083  2.829069
C    0.057653  -2.086499  1.162912
C    -0.869358  -1.969412  -0.057620
C    -0.853664  -0.461249  -0.347456
H    -0.200433  -2.917355  1.828918
H    1.097182  -2.234179  0.840246
H    -1.889994  -2.291679  0.199009
H    -0.527053  -2.581086  -0.902846
H    -1.716649  -0.107892  -0.925438
H    0.055750  -0.188152  -0.905961
O    1.947190  0.390447  1.255248
H    2.808874  0.666536  1.622753
