17
Energy: -10918.0617528 eV PBE+vdW (tier 2 basis)
N    -0.040416  -0.430160  -0.234376
C    0.519921  -0.299922  1.138795
C    1.890133  -0.995730  1.224956
O    2.539187  -1.060439  2.245446
H    -0.228636  0.490111  -0.626667
H    0.688681  0.758258  1.383654
C    -0.517254  -0.931432  2.106928
C    -1.813868  -0.962674  1.286830
C    -1.297312  -1.209662  -0.134217
H    -0.600645  -0.362352  3.038540
H    -0.204683  -1.949295  2.378140
H    -2.515301  -1.733940  1.630125
H    -2.330331  0.008214  1.337108
H    -1.068920  -2.277629  -0.277973
H    -1.992798  -0.911006  -0.927768
O    2.282415  -1.526806  0.051882
H    1.527829  -1.280538  -0.563402
