17
Energy: -10917.8280951 eV PBE+vdW (tier 2 basis)
N    -0.730449  0.240730  1.022875
C    0.004083  -0.655798  1.925259
C    1.450070  -0.217123  2.152033
O    1.996636  -0.198698  3.237086
H    -1.361445  0.858954  1.524039
H    -0.432871  -0.704624  2.933995
C    -0.052579  -2.052026  1.241572
C    -0.456559  -1.736063  -0.205072
C    -1.390139  -0.539105  -0.033470
H    -0.827019  -2.655683  1.734278
H    0.892880  -2.601875  1.321062
H    -0.940624  -2.584505  -0.703929
H    0.423137  -1.444043  -0.794265
H    -2.404751  -0.885496  0.248730
H    -1.483892  0.059827  -0.950529
O    2.097098  0.107015  0.999793
H    3.009426  0.329513  1.268543
