17
Energy: -10917.8594393 eV PBE+vdW (tier 2 basis)
N    -0.892182  -1.134002  1.952242
C    0.482191  -1.165728  1.435503
C    1.443774  -0.254700  2.161841
O    2.632492  -0.456535  2.285543
H    -1.095264  -0.190974  2.287301
H    0.889213  -2.180508  1.548032
C    0.422799  -0.811293  -0.102683
C    -1.086602  -0.728013  -0.410585
C    -1.742627  -1.432645  0.791871
H    0.921889  -1.597450  -0.681607
H    0.939015  0.131181  -0.322490
H    -1.342520  -1.189890  -1.373308
H    -1.413297  0.320780  -0.449683
H    -1.756849  -2.523898  0.635490
H    -2.774775  -1.115195  0.984479
O    0.840205  0.880651  2.627947
H    1.550537  1.405219  3.045108
