17
Energy: -10918.0114145 eV PBE+vdW (tier 2 basis)
N    -0.080953  -0.368913  -0.275558
C    0.524815  -0.038304  1.028865
C    1.787475  -0.907031  1.239031
O    2.330623  -1.058071  2.309743
H    1.556354  -1.162494  -0.580015
H    -0.501645  0.460396  -0.689962
H    0.884158  1.001205  1.018625
C    -0.555490  -0.263849  2.098408
C    -1.472875  -1.349673  1.493361
C    -1.115034  -1.405154  -0.017473
H    -1.109061  0.670349  2.261265
H    -0.109738  -0.559063  3.054879
H    -1.291116  -2.323959  1.962838
H    -2.531118  -1.108511  1.650715
H    -0.703443  -2.390872  -0.276091
H    -1.976434  -1.233285  -0.673815
O    2.241481  -1.447767  0.091182
