17
Energy: -10917.8204857 eV PBE+vdW (tier 2 basis)
N    -0.454568  0.092546  0.511946
C    0.023720  -0.595441  1.704087
C    1.326445  -0.078076  2.283729
O    1.679737  -0.289832  3.426971
H    -0.804760  1.028618  0.711743
H    -0.696475  -0.575365  2.547375
C    0.170135  -2.068064  1.218511
C    -0.793797  -2.169167  0.008404
C    -1.471217  -0.791083  -0.063036
H    -0.076148  -2.763513  2.027970
H    1.204235  -2.267643  0.912727
H    -1.526420  -2.976506  0.126230
H    -0.229289  -2.362782  -0.911503
H    -2.415681  -0.803143  0.521058
H    -1.715003  -0.483104  -1.088447
O    2.086638  0.614375  1.395110
H    2.898450  0.850180  1.886124
