17
Energy: -10917.839926 eV PBE+vdW (tier 2 basis)
N    0.111577  -0.102948  -0.083861
C    -0.074836  -0.045341  1.371419
C    1.262644  -0.080322  2.099149
O    2.273612  -0.630524  1.724919
H    -0.564960  0.519547  -0.523046
H    -0.586749  0.883024  1.652931
C    -0.918091  -1.308509  1.793251
C    -1.272767  -1.983275  0.455568
C    -0.162973  -1.490651  -0.488042
H    -1.799315  -1.019874  2.377003
H    -0.317034  -1.981571  2.419423
H    -2.252164  -1.634292  0.095185
H    -1.318803  -3.077051  0.539987
H    -0.430889  -1.531042  -1.551044
H    0.753401  -2.084274  -0.349490
O    1.171823  0.557946  3.306328
H    2.041525  0.438156  3.735321
