17
Energy: -10917.8765532 eV PBE+vdW (tier 2 basis)
N    -0.926841  -1.411835  1.792805
C    0.501388  -1.385689  1.493630
C    1.310679  -0.219042  2.082908
O    2.426628  0.102104  1.733934
H    -1.124566  -1.112629  2.746267
H    0.991589  -2.284332  1.905337
C    0.561879  -1.383328  -0.057237
C    -0.870964  -1.002270  -0.506955
C    -1.567226  -0.558430  0.785148
H    0.847657  -2.372414  -0.430756
H    1.321024  -0.673672  -0.404110
H    -1.384451  -1.877163  -0.925301
H    -0.874495  -0.214992  -1.270180
H    -2.651832  -0.728510  0.771668
H    -1.396146  0.524205  0.961751
O    0.660049  0.403417  3.110766
H    1.276629  1.087581  3.436327
