17
Energy: -10917.8221444 eV PBE+vdW (tier 2 basis)
N    -1.073367  -0.229954  1.733113
C    0.150932  -1.015119  1.888697
C    1.385657  -0.120247  1.877341
O    1.511740  0.924482  1.277511
H    -1.831263  -0.724350  2.198488
H    0.139568  -1.561529  2.839661
C    0.194912  -1.975603  0.665999
C    -0.451685  -1.142253  -0.454103
C    -1.358585  -0.116128  0.282738
H    -0.413552  -2.858817  0.906645
H    1.204853  -2.326701  0.417716
H    -1.017876  -1.770814  -1.152440
H    0.316847  -0.616989  -1.034854
H    -2.427097  -0.296533  0.104423
H    -1.132084  0.902992  -0.056205
O    2.399379  -0.680718  2.604259
H    3.163621  -0.080718  2.500012
