30
Energy: -106808.436827 eV PBE+vdW (tier 2 basis)
C    -0.596695  -0.589157  -0.317248
C    -0.569183  -0.621762  1.173440
O    0.286088  -1.331174  1.793586
H    -1.458025  -0.048708  -0.722752
H    -0.582263  -1.610970  -0.715606
H    0.323128  -0.094464  -0.665164
N    -1.445515  0.133088  1.846678
C    -1.399908  0.423448  3.290176
C    -1.981277  -0.754132  4.102140
O    -1.233920  -1.754857  4.343305
H    -2.034328  0.751213  1.290950
H    -0.338452  0.471110  3.581991
C    -2.029794  1.796569  3.564242
C    -1.279027  2.884666  2.860542
N    -1.752845  4.178465  2.751279
C    -0.043715  2.914859  2.236624
C    -0.802919  4.908653  2.088897
N    0.237138  4.168430  1.762385
H    -2.033093  1.955403  4.655793
H    -3.089518  1.798455  3.242882
H    -2.626664  4.540779  3.119523
H    0.670815  2.106511  2.104180
H    -0.927566  5.965235  1.873714
N    -3.230055  -0.694012  4.525636
C    -3.919334  -1.723541  5.305329
H    -3.760527  0.143740  4.297350
H    -4.437639  -1.248771  6.145580
H    -3.188035  -2.441152  5.683130
H    -4.655167  -2.240428  4.676324
Sr    0.702295  -2.699495  3.544096
