30
Energy: -106808.160258 eV PBE+vdW (tier 2 basis)
C    -0.680525  -1.378497  2.127186
C    -0.540723  0.105924  2.152070
O    0.608421  0.627823  2.369563
H    -0.424203  -1.771633  1.133519
H    -1.690873  -1.714640  2.373955
H    0.030009  -1.796133  2.849738
N    -1.581918  0.941653  2.011915
C    -2.792951  0.893822  1.157352
C    -3.171244  -0.513047  0.637259
O    -2.564793  -1.027462  -0.315888
H    -1.298077  1.907241  2.184197
H    -3.621750  1.299110  1.753173
C    -2.537116  1.872753  -0.049452
C    -1.132906  1.767265  -0.546885
N    -0.644934  0.631463  -1.146438
C    -0.024479  2.560836  -0.324186
C    0.695848  0.729669  -1.246374
N    1.125089  1.899516  -0.748663
H    -2.715827  2.902610  0.286412
H    -3.272684  1.663182  -0.837305
H    -1.253118  -0.202505  -1.252308
H    0.003929  3.581661  0.049762
H    1.320743  -0.032316  -1.702169
N    -4.207695  -1.090558  1.263599
C    -4.771692  -2.382929  0.876960
H    -4.667522  -0.582917  2.013365
H    -4.166647  -2.799732  0.067946
H    -5.804024  -2.253203  0.529953
H    -4.766205  -3.066509  1.734302
Sr    2.364867  1.701556  1.377444
