30
Energy: -106808.430035 eV PBE+vdW (tier 2 basis)
C    -0.591552  -0.590533  -0.314850
C    -0.565871  -0.621942  1.175899
O    0.289189  -1.330175  1.797679
H    -1.452779  -0.051030  -0.721841
H    -0.575897  -1.612657  -0.712377
H    0.328344  -0.095456  -0.662035
N    -1.443670  0.132719  1.847433
C    -1.400225  0.424163  3.290790
C    -1.981540  -0.753397  4.102786
O    -1.233490  -1.753138  4.345864
H    -2.032265  0.749942  1.290476
H    -0.339200  0.473045  3.583966
C    -2.031795  1.796874  3.563049
C    -1.281134  2.885186  2.859562
N    -1.756060  4.178450  2.748691
C    -0.045003  2.916111  2.237312
C    -0.805930  4.909066  2.087072
N    0.235284  4.169607  1.762531
H    -2.036703  1.956470  4.654481
H    -3.091092  1.797508  3.240284
H    -2.630731  4.540169  3.115492
H    0.670488  2.108353  2.106447
H    -0.931298  5.965372  1.870937
N    -3.231012  -0.694372  4.524376
C    -3.920164  -1.724292  5.303701
H    -3.762184  0.142508  4.294558
H    -4.444150  -1.249001  6.140092
H    -3.188004  -2.438101  5.687035
H    -4.651117  -2.245774  4.672780
Sr    0.704560  -2.696677  3.549811
