30
Energy: -106808.776156 eV PBE+vdW (tier 2 basis)
C    1.271858  -0.610095  2.165730
C    0.413268  0.582187  2.465028
O    0.961645  1.658107  2.903554
H    0.706687  -1.454513  1.759251
H    2.062847  -0.338232  1.453861
H    1.763937  -0.930737  3.094775
N    -0.886828  0.458748  2.258074
C    -2.032055  1.292307  2.620230
C    -3.173541  0.224823  2.776505
O    -3.007647  -0.868801  2.232218
H    -1.271154  -0.466002  1.963599
H    -1.833029  1.812234  3.568328
C    -2.430263  2.312331  1.505958
C    -1.478838  3.455527  1.443395
N    -1.606539  4.599754  2.207326
C    -0.228409  3.557887  0.877399
C    -0.462309  5.321601  2.122664
N    0.419033  4.701573  1.330197
H    -3.452650  2.665532  1.699845
H    -2.461101  1.787981  0.541846
H    -2.446170  4.895500  2.699875
H    0.228771  2.880433  0.161041
H    -0.324309  6.287573  2.598411
N    -4.266412  0.599945  3.455280
C    -5.430988  -0.268867  3.640098
H    -4.264719  1.493639  3.935447
H    -6.345547  0.277408  3.383752
H    -5.492121  -0.614231  4.679472
H    -5.324527  -1.133434  2.979867
Sr    2.219107  3.495822  2.555978
