30
Energy: -106808.564615 eV PBE+vdW (tier 2 basis)
C    -0.999382  -0.411895  -0.122686
C    -0.614440  -0.186999  1.301445
O    0.567611  -0.433840  1.694533
H    -0.205559  -0.056354  -0.789372
H    -1.950517  0.057017  -0.396273
H    -1.095565  -1.498817  -0.273987
N    -1.552251  0.277994  2.141569
C    -1.558880  0.280283  3.615513
C    -0.641321  1.349679  4.223530
O    0.622836  1.256881  4.136134
H    -2.465508  0.416720  1.718246
H    -2.593590  0.542180  3.871496
C    -1.272292  -1.126862  4.250949
C    -1.955050  -2.244597  3.552190
N    -3.284167  -2.594295  3.727320
C    -1.509196  -3.076121  2.540407
C    -3.557885  -3.607813  2.847406
N    -2.505371  -3.910753  2.112314
H    -1.552987  -1.059617  5.313169
H    -0.191805  -1.325610  4.237842
H    -3.912203  -2.261025  4.451963
H    -0.508514  -3.133524  2.119752
H    -4.530751  -4.087115  2.796431
N    -1.217608  2.331172  4.901332
C    -0.510796  3.395305  5.616324
H    -2.233744  2.365788  4.912931
H    -1.055042  3.623255  6.538464
H    -0.459035  4.300370  4.997369
H    0.500212  3.060103  5.860278
Sr    2.289801  0.152487  3.022415
