30
Energy: -106808.956806 eV PBE+vdW (tier 2 basis)
C    -0.527387  1.938988  0.564915
C    -0.215042  1.003100  1.691272
O    0.993020  0.611243  1.871424
H    0.104520  2.834035  0.635627
H    -1.578525  2.242576  0.540686
H    -0.282686  1.442777  -0.384893
N    -1.217334  0.611086  2.462923
C    -1.281460  -0.419940  3.494081
C    -2.773881  -0.893358  3.406404
O    -3.577491  -0.133737  2.860446
H    -2.196373  0.875099  2.221930
H    -0.579163  -1.230449  3.254177
C    -0.997978  0.125052  4.929593
C    0.351033  0.747036  5.019212
N    0.570090  2.105839  4.960198
C    1.611952  0.189860  4.950589
C    1.900215  2.337291  4.827192
N    2.572802  1.183648  4.802544
H    -1.075491  -0.709323  5.639231
H    -1.783350  0.843440  5.202452
H    -0.145773  2.823592  5.050460
H    1.881045  -0.859467  5.053122
H    2.335624  3.330952  4.788503
N    -3.069912  -2.070475  3.973257
C    -4.426138  -2.622040  4.016702
H    -2.317830  -2.640091  4.346743
H    -5.116286  -1.871087  3.623816
H    -4.698113  -2.864544  5.050347
H    -4.488428  -3.528185  3.402136
Sr    3.143341  0.441085  2.493914
