30
Energy: -106808.097570 eV PBE+vdW (tier 2 basis)
C    1.659152  0.997793  0.499981
C    1.000422  0.299574  1.647096
O    1.703182  -0.336753  2.493484
H    2.114445  0.233816  -0.148023
H    0.972311  1.602269  -0.101344
H    2.477060  1.630816  0.865493
N    -0.335264  0.371410  1.738379
C    -1.287874  -0.402831  2.556718
C    -1.272282  -0.079353  4.059857
O    -0.187228  0.031589  4.718982
H    -0.777903  0.922727  1.007750
H    -2.263380  -0.081794  2.173853
C    -1.214213  -1.944169  2.312762
C    -2.476575  -2.597726  2.775367
N    -2.525038  -3.694863  3.615130
C    -3.804410  -2.256845  2.574567
C    -3.846230  -3.970218  3.858403
N    -4.637859  -3.106906  3.256286
H    -0.334168  -2.371998  2.813886
H    -1.056767  -2.087942  1.232576
H    -1.742905  -4.277938  3.894122
H    -4.212612  -1.470677  1.942252
H    -4.163627  -4.809070  4.470022
N    -2.454688  0.001500  4.642261
C    -2.698758  0.182857  6.071314
H    -3.269210  -0.203900  4.060891
H    -1.767581  0.457293  6.570794
H    -3.095018  -0.746484  6.500262
H    -3.438502  0.979510  6.209340
Sr    2.053526  -0.306687  4.729538
