30
Energy: -106809.817874 eV PBE+vdW (tier 2 basis)
C    0.103634  0.392300  0.458257
C    -0.143232  -0.210294  1.808710
O    0.809824  -0.372528  2.610368
H    0.548020  1.387835  0.593534
H    -0.793636  0.483665  -0.162353
H    0.846799  -0.217568  -0.072728
N    -1.420985  -0.549851  2.093243
C    -2.076369  -1.122816  3.292442
C    -1.609893  -0.479310  4.618950
O    -0.498708  -0.738854  5.151602
H    -2.074406  -0.356006  1.339344
H    -3.126742  -0.831481  3.158595
C    -2.107769  -2.687150  3.318202
C    -0.870244  -3.351725  3.817646
N    -0.751157  -3.875535  5.087631
C    0.405578  -3.422109  3.292285
C    0.556773  -4.182001  5.311896
N    1.298972  -3.892796  4.244370
H    -2.333015  -3.022431  2.296054
H    -2.969703  -2.987345  3.930843
H    -1.512699  -4.030618  5.743643
H    0.726468  -3.189627  2.280818
H    0.915028  -4.630749  6.233532
N    -2.484116  0.341868  5.196468
C    -2.253582  1.034397  6.464926
H    -3.359166  0.531739  4.716487
H    -1.628193  0.413110  7.112146
H    -3.218558  1.212369  6.948735
H    -1.755664  1.997879  6.293886
Sr    1.725742  -1.292367  4.532470
