30
Energy: -106808.902810 eV PBE+vdW (tier 2 basis)
C    -0.094898  -0.281808  -0.030424
C    -0.278863  -0.443942  1.442096
O    0.361805  -1.342152  2.078928
H    0.973053  -0.128267  -0.238001
H    -0.666834  0.554006  -0.445922
H    -0.389272  -1.209083  -0.540866
N    -1.128368  0.377878  2.065267
C    -1.290486  0.550294  3.515261
C    -2.004062  -0.656849  4.160864
O    -1.319324  -1.675764  4.497763
H    -1.453005  1.195417  1.526392
H    -0.288674  0.565786  3.974648
C    -1.974844  1.934402  3.766224
C    -1.420381  3.011166  2.901394
N    -0.245671  3.701651  3.136110
C    -1.833894  3.439297  1.648041
C    -0.026566  4.511435  2.050835
N    -0.960107  4.361922  1.133848
H    -1.902535  2.164899  4.837972
H    -3.047919  1.877399  3.526022
H    0.288742  3.714437  3.998953
H    -2.748929  3.172272  1.122082
H    0.818472  5.190943  1.994698
N    -3.306647  -0.604051  4.370863
C    -4.108871  -1.664246  4.984130
H    -3.796245  0.240172  4.085981
H    -4.902541  -1.203750  5.580729
H    -3.473120  -2.275152  5.629819
H    -4.564741  -2.294529  4.209364
Sr    0.508724  -2.835778  3.757927
