30
Energy: -106808.741188 eV PBE+vdW (tier 2 basis)
C    -1.557470  -2.123146  -0.816290
C    -1.007192  -1.500235  0.425980
O    0.100452  -1.893677  0.908378
H    -1.583262  -3.214663  -0.708603
H    -0.868598  -1.901868  -1.645011
H    -2.555740  -1.760579  -1.082444
N    -1.708333  -0.513554  1.000924
C    -1.283657  0.406423  2.071888
C    -1.426865  -0.259770  3.462192
O    -0.782060  -1.339922  3.687840
H    -2.591017  -0.274690  0.553285
H    -0.199508  0.566943  1.949854
C    -2.036216  1.744594  1.807427
C    -1.934482  2.813451  2.840047
N    -0.784033  3.509841  3.164630
C    -2.900166  3.312449  3.700848
C    -1.107604  4.382066  4.174347
N    -2.371435  4.273380  4.524624
H    -3.108906  1.522983  1.688115
H    -1.686641  2.104214  0.826190
H    0.102441  3.485319  2.671274
H    -3.958309  3.059034  3.730317
H    -0.383514  5.068179  4.603278
N    -2.165163  0.304449  4.389077
C    -2.331187  -0.217302  5.746194
H    -2.525909  1.252599  4.188636
H    -1.377729  -0.193309  6.289259
H    -2.702891  -1.247392  5.714533
H    -3.055042  0.415163  6.266759
Sr    0.821036  -2.736983  2.893454
