30
Energy: -106809.084160 eV PBE+vdW (tier 2 basis)
C    1.277291  1.754270  2.783685
C    -0.202620  1.998413  2.818954
O    -0.679400  2.854675  3.604145
H    1.579277  0.923708  2.137252
H    1.632695  1.566399  3.804908
H    1.776942  2.669845  2.437328
N    -0.952801  1.255097  1.971995
C    -2.399950  1.195457  1.689549
C    -3.001667  2.540125  1.237121
O    -2.880372  3.599349  1.910620
H    -0.407931  0.613643  1.403219
H    -2.455320  0.523490  0.825689
C    -3.265096  0.477216  2.786630
C    -3.336839  1.179720  4.095601
N    -2.513018  0.914811  5.168932
C    -4.021741  2.323217  4.459378
C    -2.663358  1.907443  6.087106
N    -3.561192  2.801550  5.676566
H    -2.863710  -0.538823  2.902963
H    -4.277562  0.361172  2.374122
H    -1.906658  0.105294  5.272303
H    -4.844319  2.800784  3.931626
H    -2.126072  1.933351  7.030000
N    -3.706336  2.546812  0.105720
C    -3.959087  1.456579  -0.843865
H    -4.105115  3.456653  -0.124391
H    -3.024588  1.078769  -1.277726
H    -4.566603  1.858709  -1.659303
H    -4.520646  0.636506  -0.379943
Sr    -2.297207  4.462764  4.033814
