30
Energy: -106809.838735 eV PBE+vdW (tier 2 basis)
C    -0.469778  2.125265  -0.896427
C    -1.130772  1.284959  0.155662
O    -0.530349  0.292213  0.637361
H    -1.110931  2.909984  -1.311151
H    0.424794  2.593402  -0.462306
H    -0.123178  1.473529  -1.708723
N    -2.373861  1.661485  0.534541
C    -3.322270  1.122322  1.530861
C    -2.739726  1.043757  2.959606
O    -1.731291  0.352359  3.258924
H    -2.715974  2.490572  0.057282
H    -4.109766  1.886597  1.563321
C    -4.077491  -0.179410  1.084699
C    -3.224793  -1.385230  0.912637
N    -2.657343  -1.777310  -0.281382
C    -2.652229  -2.215722  1.856548
C    -1.738156  -2.748082  -0.027003
N    -1.689119  -3.025880  1.274532
H    -4.615276  0.060512  0.156977
H    -4.848475  -0.379054  1.842410
H    -2.898961  -1.423443  -1.203372
H    -2.910132  -2.299234  2.909995
H    -1.150238  -3.229902  -0.801989
N    -3.399954  1.731045  3.888759
C    -3.031230  1.736728  5.306355
H    -4.192888  2.299878  3.608393
H    -2.998638  0.712352  5.694812
H    -2.049243  2.205351  5.444725
H    -3.783393  2.307316  5.856893
Sr    -0.142338  -1.175360  2.393061
