30
Energy: -106808.979930 eV PBE+vdW (tier 2 basis)
C    -0.693491  2.820770  0.811376
C    -0.877553  1.383578  0.469147
O    0.097425  0.591771  0.358120
H    -1.626667  3.337401  1.056995
H    0.041577  2.942623  1.614180
H    -0.273059  3.309356  -0.083371
N    -2.131678  0.896311  0.208885
C    -3.284417  1.057736  1.095822
C    -2.795574  1.072704  2.570211
O    -1.718205  0.494738  2.890728
H    -2.078085  -0.022103  -0.229589
H    -3.826546  1.990235  0.880383
C    -4.272946  -0.145338  0.845107
C    -3.524532  -1.441858  0.830729
N    -3.074428  -2.053533  -0.331602
C    -2.801152  -2.054294  1.834461
C    -2.095781  -2.943683  -0.006024
N    -1.875939  -2.942433  1.307959
H    -4.791442  0.026897  -0.107565
H    -5.042294  -0.139927  1.627388
H    -3.473894  -1.934649  -1.261334
H    -2.915074  -1.921737  2.906797
H    -1.590932  -3.567778  -0.737148
N    -3.571578  1.696929  3.445771
C    -3.328587  1.790569  4.886764
H    -4.404023  2.162128  3.089674
H    -4.098181  1.232905  5.434577
H    -2.343285  1.376697  5.111390
H    -3.363723  2.842221  5.193129
Sr    -0.091933  -1.090236  2.054041
