30
Energy: -106809.912887 eV PBE+vdW (tier 2 basis)
C    -0.384606  2.090076  -0.894214
C    -1.090792  1.292758  0.161956
O    -0.528015  0.297371  0.682216
H    -0.999412  2.873532  -1.349361
H    0.505254  2.555650  -0.447589
H    -0.026591  1.409426  -1.677177
N    -2.331574  1.710324  0.502816
C    -3.313571  1.220722  1.492050
C    -2.762625  1.173438  2.934668
O    -1.778592  0.466693  3.276269
H    -2.641951  2.535203  -0.002495
H    -4.084743  2.002060  1.484423
C    -4.087882  -0.076290  1.066324
C    -3.263843  -1.309261  0.957087
N    -2.681633  -1.759874  -0.208741
C    -2.737931  -2.122217  1.942664
C    -1.798211  -2.747695  0.100963
N    -1.786657  -2.980184  1.412121
H    -4.592977  0.146570  0.116239
H    -4.884951  -0.231628  1.807252
H    -2.890688  -1.431415  -1.147863
H    -3.021521  -2.160810  2.992046
H    -1.208254  -3.274404  -0.642636
N    -3.422472  1.907558  3.827433
C    -3.081263  1.951431  5.251179
H    -4.192961  2.488769  3.512162
H    -2.107434  2.434750  5.397704
H    -3.850486  2.525639  5.773745
H    -3.044443  0.936779  5.663382
Sr    -0.213177  -1.125968  2.489377
