30
Energy: -106808.612701 eV PBE+vdW (tier 2 basis)
C    -1.229866  -2.233220  -0.345206
C    -0.796244  -1.424923  0.832391
O    0.329085  -1.634060  1.383451
H    -1.176179  -3.301841  -0.100500
H    -0.519113  -2.058226  -1.166018
H    -2.239443  -1.991218  -0.692758
N    -1.612765  -0.463076  1.286430
C    -1.276557  0.532497  2.316061
C    -1.431652  -0.085783  3.726549
O    -0.504754  -0.847461  4.154817
H    -2.503008  -0.347466  0.806911
H    -0.201892  0.749251  2.216323
C    -2.043419  1.833121  2.044326
C    -1.597694  2.943364  2.942706
N    -2.075713  4.235391  2.839093
C    -0.681354  2.996976  3.977770
C    -1.439142  4.986786  3.790481
N    -0.592917  4.262519  4.494362
H    -3.135160  1.656216  2.112320
H    -1.860223  2.094357  0.988158
H    -2.754008  4.581743  2.167755
H    -0.073723  2.195395  4.390833
H    -1.634071  6.046636  3.920163
N    -2.510215  0.176616  4.434797
C    -2.778235  -0.297579  5.791999
H    -3.153218  0.869593  4.057950
H    -2.600728  0.516116  6.507752
H    -2.120512  -1.138201  6.021623
H    -3.824286  -0.614934  5.861061
Sr    1.381008  -1.890588  3.383404
