30
Energy: -106808.559979 eV PBE+vdW (tier 2 basis)
C    -1.038924  -0.432801  -0.106761
C    -0.635463  -0.206466  1.311977
O    0.557273  -0.431551  1.685204
H    -0.254699  -0.077907  -0.784623
H    -1.994427  0.034409  -0.367829
H    -1.136971  -1.520170  -0.254617
N    -1.569081  0.234684  2.169723
C    -1.553398  0.223184  3.643557
C    -0.650949  1.307606  4.247865
O    0.613378  1.244554  4.138733
H    -2.491080  0.359602  1.761333
H    -2.589747  0.458993  3.917664
C    -1.225287  -1.182842  4.261069
C    -1.894263  -2.309907  3.563877
N    -3.211097  -2.693158  3.759542
C    -1.446458  -3.123091  2.538080
C    -3.475802  -3.706441  2.876681
N    -2.429453  -3.978410  2.121000
H    -1.489347  -1.131281  5.328369
H    -0.141080  -1.357492  4.228230
H    -3.834288  -2.379816  4.497043
H    -0.452310  -3.153376  2.099714
H    -4.437382  -4.208957  2.839179
N    -1.239494  2.268744  4.944309
C    -0.549362  3.343638  5.659119
H    -2.255929  2.277054  4.972958
H    -0.580445  4.270322  5.071706
H    0.489626  3.054532  5.833304
H    -1.050628  3.511191  6.618177
Sr    2.286086  0.184154  2.991418
