30
Energy: -106808.707021 eV PBE+vdW (tier 2 basis)
C    -0.013916  -0.369128  -0.268554
C    -0.006005  0.065791  1.161406
O    1.054954  0.522055  1.690891
H    0.181986  0.512686  -0.896477
H    -0.960020  -0.821734  -0.582995
H    0.805690  -1.075575  -0.449956
N    -1.148008  -0.028356  1.856295
C    -1.461270  0.541215  3.179639
C    -0.920215  -0.367295  4.312155
O    0.338554  -0.587518  4.353252
H    -1.944003  -0.418125  1.355310
H    -0.884738  1.476344  3.273727
C    -2.982527  0.874636  3.151084
C    -3.620481  1.310452  4.424729
N    -3.357389  2.494420  5.090552
C    -4.548423  0.659144  5.222513
C    -4.130095  2.503252  6.225292
N    -4.845240  1.404044  6.335331
H    -3.529953  -0.020215  2.813835
H    -3.115364  1.630126  2.359868
H    -2.803531  3.274013  4.751027
H    -5.050343  -0.285658  5.021847
H    -4.129923  3.336569  6.921456
N    -1.748898  -0.852817  5.207303
C    -1.383808  -1.688280  6.348991
H    -2.717829  -0.492176  5.183435
H    -1.594218  -1.145701  7.279168
H    -0.324812  -1.948180  6.298755
H    -1.990231  -2.601716  6.332415
Sr    2.350055  0.003730  3.486708
