30
Energy: -106809.838307 eV PBE+vdW (tier 2 basis)
C    -0.707689  -1.510910  -0.260463
C    -0.761296  -0.719262  1.012508
O    -1.649438  -0.960564  1.867418
H    -0.508470  -2.562951  -0.012842
H    0.051759  -1.166892  -0.970219
H    -1.693572  -1.480638  -0.742094
N    0.182894  0.237491  1.167278
C    0.474012  1.187372  2.260865
C    0.717159  0.503134  3.624559
O    -0.146638  -0.200753  4.210121
H    0.834563  0.301883  0.390541
H    1.436362  1.623025  1.961953
C    -0.492185  2.422106  2.335880
C    -1.903635  2.109262  2.683712
N    -2.903548  1.882160  1.761769
C    -2.471620  1.776620  3.898378
C    -3.983960  1.368600  2.410746
N    -3.748145  1.266358  3.717461
H    -0.429024  2.941082  1.369370
H    -0.073690  3.112667  3.081824
H    -2.856743  2.084747  0.766609
H    -2.045602  1.914906  4.889668
H    -4.909968  1.104479  1.909567
N    1.904260  0.734710  4.180578
C    2.299337  0.215442  5.492052
H    2.587162  1.284420  3.668410
H    1.573692  0.519032  6.255263
H    3.280793  0.624646  5.744584
H    2.359588  -0.879482  5.468110
Sr    -2.377358  -0.984692  4.071395
