30
Energy: -106808.906780 eV PBE+vdW (tier 2 basis)
C    0.202259  -0.220319  0.125825
C    -0.032637  -0.298305  1.597809
O    0.656085  -1.088566  2.321560
H    0.011552  -1.202782  -0.327509
H    1.261186  0.012888  -0.051188
H    -0.420692  0.530784  -0.370164
N    -0.979351  0.481719  2.127838
C    -1.220599  0.731742  3.555312
C    -1.853570  -0.491539  4.252697
O    -1.096211  -1.416672  4.690098
H    -1.350039  1.229266  1.521507
H    -0.245508  0.866854  4.050924
C    -2.033340  2.061595  3.685756
C    -1.533702  3.127538  2.775318
N    -0.435544  3.933268  3.012746
C    -1.923913  3.439554  1.480956
C    -0.236920  4.691474  1.887037
N    -1.110222  4.403354  0.944223
H    -2.031289  2.364048  4.741963
H    -3.085253  1.894380  3.406427
H    0.055242  4.046011  3.894049
H    -2.786769  3.060231  0.936187
H    0.547921  5.438966  1.821566
N    -3.164654  -0.547109  4.399167
C    -3.902201  -1.633468  5.046259
H    -3.712094  0.228461  4.034954
H    -4.730212  -1.204860  5.620074
H    -3.234102  -2.177242  5.718426
H    -4.308388  -2.319434  4.291428
Sr    0.862965  -2.444832  4.107751
