20
Energy: -166543.000533 eV PBE+vdW (tier 2 basis)
C    -0.629988  0.159713  -0.347284
C    -0.459396  -0.589202  0.929492
O    0.173977  -1.702058  0.874560
H    -1.226131  1.071713  -0.233328
H    -1.080236  -0.495953  -1.103908
H    0.369850  0.434002  -0.719432
N    -0.950275  -0.058932  2.061737
C    -0.609876  -0.405344  3.448430
C    -1.498123  -1.469744  4.103042
O    -1.405059  -2.715699  3.782009
H    -1.457147  0.815770  1.941372
H    0.436282  -0.750557  3.496943
H    -0.639102  0.526349  4.026959
N    -2.344121  -1.097296  5.037458
C    -3.236144  -1.982151  5.797083
H    -2.386202  -0.105196  5.267542
H    -3.019482  -3.023176  5.550142
H    -4.277577  -1.745846  5.544825
H    -3.076832  -1.806287  6.867403
Cd    -0.075417  -3.281106  2.245956
