20
Energy: -166541.695087 eV PBE+vdW (tier 2 basis)
C    -1.918988  0.632587  0.713396
C    -0.529536  0.555990  1.242491
O    0.304408  1.532663  1.121207
H    -2.485785  -0.298029  0.800685
H    -1.873667  0.898814  -0.356745
H    -2.467625  1.420721  1.246240
N    -0.044045  -0.517278  1.872554
C    -0.804546  -1.595637  2.468842
C    -1.661514  -1.116479  3.680789
O    -2.093976  0.030445  3.699076
H    0.934153  -0.433564  2.157897
H    -1.507608  -2.023225  1.738063
H    -0.095745  -2.380340  2.756199
N    -1.922329  -2.043394  4.633887
C    -2.716592  -1.762891  5.815118
H    -1.444099  -2.942424  4.586669
H    -2.071025  -1.481378  6.665413
H    -3.262066  -2.672732  6.097389
H    -3.397937  -0.931432  5.606527
Cd    0.354520  3.069583  -0.364698
