20
Energy: -166541.551953 eV PBE+vdW (tier 2 basis)
C    0.035442  0.262006  0.003054
C    0.017256  0.570669  1.468912
O    1.171453  0.858148  1.979138
H    1.052118  0.334846  -0.391727
H    -0.611351  0.972143  -0.533851
H    -0.345069  -0.756436  -0.166777
N    -1.097905  0.546088  2.166515
C    -2.444122  0.236861  1.694712
C    -3.323962  0.367510  2.951208
O    -2.797633  0.677887  4.024323
H    -1.134437  0.756587  3.182326
H    -2.767569  0.945047  0.917026
H    -2.499452  -0.782656  1.284296
N    -4.659480  0.140714  2.862104
C    -5.452499  -0.227392  1.712955
H    -5.146936  0.255156  3.755624
H    -6.238715  0.528862  1.546848
H    -5.971271  -1.181205  1.909881
H    -4.844604  -0.323920  0.810292
Cd    1.949732  1.382086  3.879139
