20
Energy: -166542.152098 eV PBE+vdW (tier 2 basis)
C    -0.676709  2.870668  1.411851
C    -0.067186  1.504120  1.578154
O    1.200667  1.409177  1.559558
H    -1.556429  3.014718  2.049630
H    -0.975998  2.986254  0.357470
H    0.077509  3.631397  1.633166
N    -0.788322  0.371895  1.746334
C    -2.222609  0.279709  1.539931
C    -3.006759  0.293050  2.844334
O    -2.362022  0.458042  3.972869
H    -1.400729  0.537788  3.783015
H    -2.591830  1.096010  0.897059
H    -2.454808  -0.652339  1.003326
N    -4.299487  0.153788  2.916874
C    -5.260150  -0.033720  1.822852
H    -4.692392  0.187423  3.863125
H    -5.973393  0.799519  1.830485
H    -5.803598  -0.972066  1.986346
H    -4.755536  -0.069942  0.854529
Cd    1.161780  -0.785490  1.658093
