20
Energy: -166542.289688 eV PBE+vdW (tier 2 basis)
C    -0.415336  3.316334  1.622447
C    -0.161988  1.862454  1.716375
O    0.952046  1.439347  2.182152
H    0.288945  3.705287  0.862705
H    -0.162879  3.827384  2.559948
H    -1.427535  3.558303  1.283890
N    -1.067468  0.932627  1.277074
C    -2.481451  0.862394  1.592193
C    -2.717026  -0.067694  2.800820
O    -1.759686  -0.599773  3.485273
H    -0.655677  0.090041  0.869844
H    -2.868371  1.862991  1.832422
H    -3.051104  0.499195  0.725043
N    -3.954470  -0.339215  3.149700
C    -5.188752  0.130934  2.498548
H    -4.056178  -0.960417  3.954969
H    -5.204128  1.224924  2.426447
H    -6.032245  -0.184327  3.118357
H    -5.299566  -0.317968  1.503048
Cd    0.337871  -0.301822  3.308744
