20
Energy: -166541.649809 eV PBE+vdW (tier 2 basis)
C    0.471814  -0.149504  0.047932
C    0.009755  0.120677  1.437419
O    0.810673  -0.072653  2.496422
H    -0.313986  0.074264  -0.678903
H    0.745469  -1.210395  -0.064926
H    1.349505  0.468637  -0.191980
N    -1.157351  0.586501  1.708378
C    -1.745121  0.848398  3.001120
C    -3.128673  1.417401  2.733211
O    -3.487544  1.592340  1.491501
H    -2.728627  1.288286  0.923432
H    -1.833065  -0.062614  3.616132
H    -1.163847  1.586335  3.580473
N    -3.981267  1.745556  3.663144
C    -3.813235  1.658128  5.116102
H    -4.875092  2.114388  3.326255
H    -3.909667  2.660974  5.549107
H    -2.833133  1.248212  5.371780
H    -4.596257  1.010989  5.528677
Cd    2.684649  -0.959918  2.495723
