25
Energy: -238663.70833 eV PBE+vdW (tier 2 basis)
N    0.734422  -1.567725  -0.176605
C    0.044433  -0.534648  0.710264
C    1.139849  0.401356  1.234668
O    0.822083  1.306825  2.063477
H    0.847589  -2.447693  0.351184
H    0.204958  -1.770334  -1.032663
H    -0.592459  0.072511  0.049452
C    -0.813126  -1.203229  1.785412
C    -0.056456  -2.159462  2.717094
C    -0.950830  -2.796983  3.796921
C    -1.371939  -1.862672  4.936183
N    -2.226078  -0.756425  4.467917
H    -1.641342  -1.729369  1.285093
H    -1.285277  -0.416487  2.394853
H    0.775624  -1.625275  3.209179
H    0.408804  -2.991045  2.150859
H    -0.409780  -3.645940  4.237926
H    -1.845796  -3.230120  3.320345
H    -0.471473  -1.419967  5.390567
H    -1.842543  -2.477906  5.722871
H    -3.160865  -1.109041  4.250125
H    -2.363649  -0.081869  5.221428
O    2.334683  0.271436  0.786855
H    1.679998  -1.212226  -0.412592
Ba    3.083918  2.333779  2.140987
