25
Energy: -238664.732682 eV PBE+vdW (tier 2 basis)
N    0.474486  1.001470  2.231528
C    0.800690  -0.440864  2.157544
C    1.549135  -0.809293  0.873483
O    1.573828  0.006813  -0.113258
H    -0.746919  1.394332  3.282974
H    1.315881  1.539453  2.456389
H    1.482176  -0.687489  2.985331
C    -0.478273  -1.308934  2.290597
C    -0.815634  -1.779576  3.714947
C    -1.019968  -0.733963  4.824188
C    -2.114911  0.307736  4.567359
N    -1.529632  1.597950  4.037293
H    -0.362991  -2.213914  1.679696
H    -1.314289  -0.750024  1.838574
H    -0.026267  -2.469339  4.048508
H    -1.728077  -2.391303  3.647089
H    -0.074768  -0.222030  5.071572
H    -1.285318  -1.278609  5.739863
H    -2.665482  0.556447  5.481184
H    -2.844977  -0.039989  3.825880
H    -1.088737  2.125501  4.799869
H    -2.253389  2.205108  3.635936
O    2.127043  -1.949938  0.804945
H    0.205611  1.317118  1.292704
Ba    2.972781  -1.574664  -1.478193
