25
Energy: -238663.704392 eV PBE+vdW (tier 2 basis)
N    -0.126068  0.690518  0.758365
C    0.048803  0.171813  2.176423
C    1.545067  0.029922  2.440007
O    1.934990  -0.157751  3.634098
H    -1.008301  0.322014  0.365979
H    -0.156256  1.716495  0.709893
H    -0.380742  0.918052  2.857508
C    -0.691814  -1.170883  2.339308
C    -2.176342  -1.081436  1.972770
C    -2.976691  -2.324313  2.382155
C    -4.485430  -2.115051  2.181158
N    -4.952750  -0.959938  2.954481
H    -0.582385  -1.450853  3.396431
H    -0.180866  -1.950783  1.750460
H    -2.310591  -0.949923  0.879356
H    -2.650409  -0.213259  2.460967
H    -2.782239  -2.537476  3.446251
H    -2.647180  -3.209168  1.817210
H    -5.001713  -3.059691  2.424295
H    -4.687544  -1.917868  1.117465
H    -5.840770  -0.616159  2.591713
H    -5.124794  -1.219345  3.926506
O    2.355874  0.055969  1.448497
H    0.682285  0.370456  0.195828
Ba    4.342852  -0.374801  3.039107
