25
Energy: -238664.131889 eV PBE+vdW (tier 2 basis)
N    -1.280322  0.334634  2.744396
C    -0.375155  -0.709224  2.271813
C    1.027795  -0.106488  2.367581
O    1.876380  -0.605602  3.188324
H    -3.534714  -2.427142  -2.983793
H    -2.153227  -0.026707  3.119640
H    -0.398868  -1.520868  3.012235
C    -0.630695  -1.318757  0.871373
C    -1.959456  -2.102758  0.789526
C    -3.164795  -1.322325  0.232115
C    -3.203090  -1.176521  -1.284364
N    -3.548228  -2.503431  -1.957419
H    0.203715  -1.997525  0.639312
H    -0.587806  -0.515614  0.117585
H    -2.226595  -2.471029  1.790824
H    -1.796289  -3.025200  0.204899
H    -3.176257  -0.302997  0.642192
H    -4.109660  -1.777208  0.572471
H    -2.239280  -0.866338  -1.707695
H    -3.973011  -0.469005  -1.613403
H    -2.881690  -3.240981  -1.688238
H    -4.487375  -2.823313  -1.680857
O    1.317678  0.940958  1.683821
H    -1.463721  1.055675  2.049422
Ba    3.279666  1.395765  3.118238
