25
Energy: -238664.633596 eV PBE+vdW (tier 2 basis)
N    0.554474  -0.131476  0.016173
C    0.027075  -0.101148  1.442146
C    1.226113  -0.397741  2.352901
O    1.206793  0.070344  3.526641
H    1.306747  -0.849365  -0.000887
H    -0.175874  -0.374167  -0.667215
H    -0.346760  0.908725  1.645395
C    -1.101597  -1.152128  1.587286
C    -1.388579  -1.602623  3.035245
C    -0.589197  -2.857844  3.442079
C    -0.499163  -3.136615  4.941399
N    0.413688  -2.183761  5.656068
H    -0.839657  -2.038670  0.985980
H    -2.007604  -0.720338  1.140283
H    -2.458851  -1.830270  3.118866
H    -1.208382  -0.762116  3.720618
H    0.426130  -2.831469  3.004588
H    -1.056621  -3.734896  2.970146
H    -0.099886  -4.146913  5.100897
H    -1.503878  -3.120130  5.390814
H    -0.042275  -1.265304  5.694556
H    0.459665  -2.478567  6.636920
O    2.132042  -1.173475  1.904037
H    0.969737  0.766363  -0.268119
Ba    2.859859  -1.630419  4.430185
