25
Energy: -238663.662563 eV PBE+vdW (tier 2 basis)
N    0.192934  0.758457  0.172917
C    -0.147261  0.462026  1.626325
C    1.057713  -0.257747  2.242741
O    0.960987  -0.686048  3.433760
H    -0.165164  1.670745  -0.133309
H    -0.222281  0.023444  -0.432047
H    -0.216160  1.434410  2.138226
C    -1.479885  -0.286025  1.756068
C    -1.565062  -1.667415  1.094966
C    -1.556341  -1.715966  -0.443710
C    -2.236418  -2.998548  -0.981434
N    -3.619361  -3.054783  -0.525604
H    -2.276568  0.369989  1.370910
H    -1.668155  -0.376081  2.834871
H    -2.529904  -2.102832  1.398225
H    -0.786927  -2.336464  1.499113
H    -0.532073  -1.700726  -0.869699
H    -2.112034  -0.852641  -0.855426
H    -1.700644  -3.872596  -0.582965
H    -2.114933  -3.029112  -2.077620
H    -4.251674  -2.576246  -1.165881
H    -3.950763  -4.013020  -0.439235
O    2.136242  -0.366497  1.561101
H    1.221675  0.722626  0.060719
Ba    3.321431  -1.455289  3.580019
