25
Energy: -238664.441075 eV PBE+vdW (tier 2 basis)
N    -0.018293  1.103846  1.737062
C    0.684273  -0.169319  1.797065
C    1.643806  -0.457051  0.634639
O    1.528617  0.183008  -0.470658
H    -2.130723  1.263304  5.321879
H    0.634461  1.885133  1.800388
H    1.316423  -0.173821  2.699094
C    -0.314799  -1.353053  1.892366
C    -1.416447  -1.160820  2.944604
C    -0.902192  -1.009652  4.381403
C    -2.000384  -0.855970  5.424398
N    -2.761279  0.454153  5.234901
H    0.249491  -2.274446  2.093944
H    -0.802513  -1.487775  0.914336
H    -2.093918  -2.026755  2.888209
H    -2.000679  -0.273844  2.649037
H    -0.206582  -0.158799  4.462602
H    -0.325278  -1.900287  4.673060
H    -1.603547  -0.828028  6.445902
H    -2.753462  -1.651887  5.362211
H    -3.513072  0.562178  5.929093
H    -3.185211  0.499705  4.297841
O    2.553247  -1.353446  0.780441
H    -0.500252  1.208900  0.841860
Ba    3.459315  -0.991276  -1.474677
