25
Energy: -238664.197137 eV PBE+vdW (tier 2 basis)
N    -0.492844  0.650196  0.378786
C    0.373551  0.076759  1.410214
C    1.524528  -0.542385  0.611955
O    2.659087  0.051120  0.567971
H    -2.411274  -0.153294  6.671190
H    -0.974934  1.493280  0.678248
H    0.815187  0.911921  1.970984
C    -0.276203  -0.948201  2.367466
C    -1.426327  -0.370622  3.208587
C    -0.999738  0.520568  4.390712
C    -0.552070  -0.223837  5.642986
N    -1.740017  -0.867628  6.354963
H    0.506267  -1.380103  3.014608
H    -0.655819  -1.784412  1.762378
H    -2.061390  -1.204417  3.556853
H    -2.090457  0.214246  2.556061
H    -1.808043  1.219940  4.659456
H    -0.157963  1.165922  4.099261
H    -0.091833  0.444210  6.380264
H    0.147725  -1.041006  5.427508
H    -1.445193  -1.405645  7.181489
H    -2.246723  -1.508227  5.727608
O    1.302398  -1.584126  -0.104854
H    -1.167841  -0.018940  0.011732
Ba    3.224927  -1.055321  -1.547427
