25
Energy: -238664.104971 eV PBE+vdW (tier 2 basis)
N    -0.271724  1.215044  0.743413
C    -0.076025  0.034934  1.585644
C    1.433965  -0.203314  1.530274
O    2.152887  0.136839  2.534639
H    -1.463682  -3.333718  -0.221364
H    -1.064201  1.783027  1.033187
H    -0.296511  0.328391  2.621089
C    -0.912913  -1.221683  1.245584
C    -2.417523  -0.965754  1.429953
C    -3.347131  -2.190218  1.424096
C    -3.524614  -2.923221  0.100453
N    -2.352334  -3.854648  -0.206161
H    -0.583746  -2.043339  1.905730
H    -0.664699  -1.509400  0.205349
H    -2.769048  -0.247528  0.673611
H    -2.562447  -0.468626  2.401082
H    -4.355055  -1.852373  1.706631
H    -3.060074  -2.907412  2.212381
H    -3.599349  -2.238012  -0.753662
H    -4.412393  -3.566448  0.107208
H    -2.270264  -4.585230  0.514349
H    -2.467557  -4.324445  -1.114810
O    1.980137  -0.604468  0.440285
H    -0.360409  0.986882  -0.245542
Ba    4.108710  0.494720  1.127581
