25
Energy: -238662.882659 eV PBE+vdW (tier 2 basis)
N    0.384811  0.273116  0.088559
C    0.176632  0.003265  1.546609
C    1.541739  -0.201923  2.200154
O    2.597377  0.119610  1.614788
H    0.253501  -0.623405  -0.398554
H    -0.402034  0.844466  -0.235322
H    -0.206407  0.936052  1.997969
C    -0.836590  -1.124373  1.838354
C    -0.451812  -2.507499  1.300523
C    -1.449172  -3.587947  1.734517
C    -1.108740  -4.982665  1.190924
N    -2.032594  -5.965825  1.729990
H    -1.810220  -0.808504  1.433835
H    -1.010828  -1.176116  2.928239
H    0.559602  -2.786319  1.646998
H    -0.407618  -2.494765  0.195481
H    -2.462521  -3.305605  1.405448
H    -1.485809  -3.646491  2.833097
H    -0.095109  -5.260807  1.518230
H    -1.080966  -4.942694  0.081375
H    -2.953289  -5.927309  1.295027
H    -1.682894  -6.917823  1.647019
O    1.635538  -0.667917  3.417575
H    0.767710  -0.926546  3.791400
Ba    2.986199  1.178399  -0.532364
