25
Energy: -238664.316182 eV PBE+vdW (tier 2 basis)
N    2.082529  -2.593679  1.548552
C    0.658624  -2.133247  1.604284
C    0.395137  -2.033695  0.096326
O    -0.000041  -3.089779  -0.500476
H    2.253477  -3.336764  2.226088
H    2.710503  -1.822175  1.780772
H    0.049888  -2.954936  2.001713
C    0.425742  -0.846901  2.398017
C    -1.050349  -0.420114  2.369541
C    -1.370893  0.916319  3.065655
C    -1.261158  0.849461  4.584443
N    -1.725188  2.157776  5.216742
H    1.049730  -0.046488  1.967986
H    0.773685  -1.017655  3.429217
H    -1.682374  -1.214865  2.797010
H    -1.370688  -0.313413  1.322922
H    -2.400393  1.200846  2.794651
H    -0.708252  1.706489  2.676205
H    -0.234785  0.694170  4.937723
H    -1.900363  0.066053  5.011099
H    -1.158427  2.953526  4.890469
H    -2.704819  2.361316  4.970768
O    0.934992  -1.070020  -0.543724
H    -1.662169  2.130901  6.244353
Ba    2.139591  -2.938129  -1.702336
