25
Energy: -238663.534634 eV PBE+vdW (tier 2 basis)
N    0.251766  0.155089  0.417512
C    -0.087282  -0.075400  1.882662
C    1.212135  0.043123  2.679042
O    1.141454  0.118101  3.944059
H    -0.355910  -0.426548  -0.180473
H    0.136635  1.135050  0.129855
H    -0.783165  0.715406  2.193476
C    -0.736825  -1.457997  2.061735
C    -2.070170  -1.611362  1.314071
C    -2.734277  -2.974586  1.555435
C    -2.043842  -4.155576  0.863046
N    -2.694515  -5.400216  1.247527
H    -0.906620  -1.585212  3.140116
H    -0.017692  -2.237725  1.762021
H    -1.936089  -1.488939  0.219887
H    -2.751166  -0.806741  1.631514
H    -3.773421  -2.911925  1.199441
H    -2.795314  -3.177809  2.635384
H    -0.992709  -4.228857  1.189424
H    -2.018509  -3.959519  -0.231392
H    -3.643768  -5.456581  0.876993
H    -2.190270  -6.211539  0.892975
O    2.327860  0.019922  2.051511
H    1.247369  -0.100981  0.281305
Ba    3.606761  0.144941  4.302606
