25
Energy: -238663.544503 eV PBE+vdW (tier 2 basis)
N    0.541546  -0.241271  0.345041
C    -0.051864  0.270011  1.649608
C    1.057651  1.044120  2.374767
O    0.826244  1.480791  3.542784
H    0.795925  -1.236510  0.451413
H    -0.107108  -0.156812  -0.446871
H    -0.823162  1.007796  1.381902
C    -0.671406  -0.870573  2.465226
C    0.281970  -2.031112  2.771821
C    -0.337660  -3.044669  3.740756
C    0.551523  -4.268660  3.987872
N    -0.024514  -5.093706  5.041629
H    -1.567666  -1.232770  1.939320
H    -1.033468  -0.418956  3.399369
H    1.224740  -1.647373  3.201671
H    0.563434  -2.574514  1.847069
H    -1.313740  -3.374620  3.348912
H    -0.540541  -2.559111  4.707194
H    1.542106  -3.931749  4.333784
H    0.719518  -4.794793  3.024474
H    -0.849506  -5.598678  4.716981
H    0.638956  -5.793843  5.369712
O    2.163378  1.260300  1.766268
H    1.410542  0.293917  0.156656
Ba    3.010621  2.657654  3.776956
