25
Energy: -238664.310079 eV PBE+vdW (tier 2 basis)
N    -0.117031  -3.030254  2.207935
C    -0.277543  -2.130524  1.072483
C    0.948038  -2.159297  0.168779
O    1.750685  -3.161250  0.222782
H    0.540544  -3.777618  1.986191
H    -1.002577  -3.467187  2.457996
H    -1.080457  -2.457024  0.375597
C    -0.668470  -0.708364  1.536690
C    0.361968  -0.070191  2.475759
C    -0.159089  1.143347  3.269900
C    -1.072009  0.730888  4.417941
N    -1.543378  1.950027  5.205019
H    -1.641865  -0.818176  2.039946
H    -0.843219  -0.070693  0.659291
H    1.228284  0.268559  1.890094
H    0.730921  -0.838532  3.172514
H    -0.692336  1.834352  2.595483
H    0.701546  1.695923  3.679721
H    -0.558928  0.083490  5.139868
H    -1.983191  0.222073  4.081785
H    -2.070797  2.600055  4.605230
H    -2.153233  1.686660  5.991722
O    1.134106  -1.228465  -0.696678
H    -0.744572  2.472746  5.591624
Ba    2.942603  -2.477544  -1.813672
