25
Energy: -238663.485121 eV PBE+vdW (tier 2 basis)
N    -0.631243  -0.059453  -0.018256
C    -0.114586  -0.300369  1.354168
C    1.397988  -0.440486  1.307968
O    1.984031  -0.777874  0.259739
H    -1.634037  -0.447453  -0.084281
H    -0.745175  0.952187  -0.146873
H    -0.363389  0.543413  2.019893
C    -0.707327  -1.606875  1.970188
C    -1.897556  -1.386873  2.917619
C    -3.161743  -0.716726  2.361019
C    -3.835422  -1.437248  1.186753
N    -3.338773  -0.943611  -0.133822
H    0.074246  -2.139010  2.532123
H    -0.975808  -2.275398  1.135859
H    -1.546687  -0.812405  3.789500
H    -2.170627  -2.376293  3.314985
H    -2.971668  0.335246  2.085205
H    -3.879268  -0.658904  3.190748
H    -4.926013  -1.319163  1.253961
H    -3.636394  -2.517196  1.237015
H    -3.669847  -1.580864  -0.863094
H    -3.815020  -0.059435  -0.337329
O    2.126365  -0.265473  2.383475
H    1.606364  0.016219  3.162642
Ba    1.034973  -1.009836  -1.975482
