25
Energy: -238663.541126 eV PBE+vdW (tier 2 basis)
N    -0.329172  0.819678  0.510488
C    -0.209009  0.165003  1.878500
C    1.275584  0.128522  2.240873
O    1.602291  -0.160843  3.432572
H    -1.116802  0.401046  -0.009718
H    -0.485797  1.833912  0.565098
H    -0.751138  0.792981  2.597799
C    -0.812468  -1.249857  1.844668
C    -2.293465  -1.286328  1.438699
C    -2.887264  -2.701930  1.513818
C    -3.148015  -3.201262  2.940715
N    -3.541598  -4.604535  2.901894
H    -0.687329  -1.658382  2.856489
H    -0.216742  -1.888377  1.171045
H    -2.423037  -0.929832  0.398334
H    -2.872779  -0.598697  2.077258
H    -2.229930  -3.421295  1.001128
H    -3.835276  -2.705960  0.955818
H    -3.879372  -2.523134  3.427366
H    -2.224825  -3.142159  3.540998
H    -3.601710  -4.997680  3.840269
H    -4.462406  -4.720879  2.477056
O    2.141472  0.343866  1.322368
H    0.562832  0.662963  0.005878
Ba    4.058057  -0.114766  2.999013
