25
Energy: -238663.049157 eV PBE+vdW (tier 2 basis)
N    -0.463210  -1.023097  -0.229982
C    0.117377  -0.551362  1.066032
C    1.444864  0.130966  0.789523
O    2.072514  -0.076415  -0.272706
H    -1.053747  -1.835704  -0.021791
H    -1.125039  -0.314967  -0.566874
H    -0.556430  0.177673  1.543199
C    0.310289  -1.747417  2.039913
C    0.911643  -1.429270  3.412723
C    0.191239  -0.346690  4.227264
C    0.557018  -0.431210  5.724804
N    0.166009  -1.735008  6.252319
H    0.922292  -2.514760  1.534852
H    -0.694393  -2.178091  2.181650
H    1.987803  -1.207896  3.329676
H    0.846462  -2.349285  4.015201
H    -0.901093  -0.460407  4.122259
H    0.407346  0.691794  3.890265
H    0.099906  0.424455  6.249315
H    1.645665  -0.319833  5.834408
H    0.767156  -2.025700  7.020489
H    -0.789021  -1.727648  6.608156
O    1.977254  0.919007  1.679375
H    1.433351  0.972604  2.502336
Ba    1.504836  -1.404204  -2.216506
