25
Energy: -238662.942518 eV PBE+vdW (tier 2 basis)
N    0.990848  -1.405403  1.912024
C    -0.100343  -0.826948  2.751817
C    0.232702  -1.043305  4.215196
O    1.034548  -1.931898  4.571935
H    1.637278  -0.650814  1.656384
H    0.562443  -1.674016  1.017755
H    -0.197438  0.254177  2.558028
C    -1.463350  -1.499409  2.437467
C    -1.934195  -1.283422  0.989774
C    -2.039523  0.181511  0.566511
C    -2.646139  0.370359  -0.833417
N    -2.545672  1.769228  -1.231521
H    -2.214948  -1.086978  3.126989
H    -1.395783  -2.576079  2.670012
H    -2.914909  -1.775899  0.904663
H    -1.290781  -1.836505  0.279617
H    -1.051186  0.672354  0.548339
H    -2.648858  0.736509  1.300293
H    -3.675177  -0.038566  -0.837093
H    -2.071291  -0.228556  -1.556490
H    -2.644006  1.875145  -2.239933
H    -3.277775  2.337095  -0.804715
O    -0.348907  -0.336829  5.149647
H    -0.946474  0.356738  4.803432
Ba    2.439075  -3.416374  3.257764
