25
Energy: -238664.619858 eV PBE+vdW (tier 2 basis)
N    1.780100  -0.272138  0.748951
C    0.456453  -0.182363  1.445810
C    0.631753  -0.553969  2.942339
O    1.790004  -0.253538  3.448617
H    1.947917  -1.253112  0.498427
H    1.702408  0.206794  -0.153664
H    0.194454  0.889627  1.458805
C    -0.696949  -0.934177  0.772335
C    -0.550600  -2.471961  0.715630
C    -1.878546  -3.242874  0.864579
C    -2.276748  -3.625162  2.287650
N    -2.554799  -2.437821  3.186373
H    -0.839546  -0.536009  -0.242826
H    -1.608787  -0.641641  1.311460
H    0.147113  -2.826608  1.492878
H    -0.099934  -2.756513  -0.244389
H    -1.806809  -4.198156  0.325650
H    -2.698059  -2.696086  0.371115
H    -1.480115  -4.194167  2.783896
H    -3.182667  -4.242990  2.282982
H    -3.330484  -1.870668  2.824166
H    -2.825093  -2.750881  4.127037
O    -0.292416  -1.053317  3.590318
H    -1.688158  -1.817904  3.292045
Ba    3.784200  0.531856  2.571446
