25
Energy: -238664.617775 eV PBE+vdW (tier 2 basis)
N    0.534464  -0.361248  0.131189
C    0.275567  -0.427849  1.607063
C    1.567891  -0.942960  2.298744
O    2.668469  -0.454325  1.808382
H    0.422255  -1.304817  -0.257414
H    -0.219391  0.178301  -0.305327
H    0.160375  0.617926  1.939842
C    -0.974742  -1.215936  2.017896
C    -1.526961  -0.781375  3.396333
C    -2.211170  -1.897403  4.212236
C    -1.334039  -2.554017  5.272338
N    -0.144833  -3.288575  4.687396
H    -0.731019  -2.289801  2.000316
H    -1.759501  -1.076247  1.260557
H    -2.246054  0.032124  3.235464
H    -0.721905  -0.340568  4.004614
H    -2.648218  -2.660535  3.548527
H    -3.063392  -1.478201  4.764974
H    -1.901540  -3.281883  5.864481
H    -0.917359  -1.806148  5.959046
H    0.450876  -3.671359  5.431944
H    -0.450786  -4.080556  4.109777
O    1.530244  -1.744071  3.236134
H    0.463008  -2.650236  4.084641
Ba    3.204667  0.507573  -0.227463
