25
Energy: -238663.493565 eV PBE+vdW (tier 2 basis)
N    -0.571339  0.601850  1.631657
C    -0.682851  -0.175201  2.891218
C    0.646738  -0.870455  3.176728
O    1.458323  -1.105875  2.263135
H    -1.539531  0.646235  1.175204
H    -0.334643  1.570572  1.868062
H    -0.910195  0.489571  3.741108
C    -1.816011  -1.234846  2.823657
C    -1.783171  -2.224777  1.632421
C    -2.907301  -2.104691  0.590472
C    -2.852589  -0.937952  -0.395427
N    -3.027103  0.383588  0.243655
H    -2.764423  -0.682934  2.835296
H    -1.801664  -1.797341  3.767330
H    -1.815085  -3.244972  2.036255
H    -0.800239  -2.193939  1.114740
H    -3.878504  -2.090174  1.111619
H    -2.919891  -3.029376  -0.004080
H    -3.587693  -1.114456  -1.196125
H    -1.865023  -0.936567  -0.912229
H    -3.179573  1.100783  -0.470036
H    -3.887344  0.382385  0.798366
O    0.944625  -1.284015  4.384576
H    0.279197  -1.036448  5.057418
Ba    1.225773  -0.481743  -0.104405
