25
Energy: -238662.924552 eV PBE+vdW (tier 2 basis)
N    -0.118683  0.404910  0.698094
C    0.165749  0.016703  2.112097
C    1.636806  -0.329623  2.232363
O    2.280244  -0.742585  1.241680
H    -1.123437  0.259238  0.545437
H    0.003056  1.419288  0.603672
H    -0.079009  0.842944  2.800310
C    -0.669778  -1.228461  2.516914
C    -2.177655  -0.965053  2.609543
C    -2.950158  -2.233824  2.985581
C    -4.464777  -1.997589  3.133049
N    -5.138684  -3.260085  3.377443
H    -0.306394  -1.591535  3.489763
H    -0.460418  -2.041479  1.798239
H    -2.575969  -0.584027  1.650997
H    -2.361924  -0.172403  3.352507
H    -2.554262  -2.637513  3.931531
H    -2.800247  -3.017172  2.226870
H    -4.858942  -1.578037  2.195012
H    -4.635510  -1.232168  3.915668
H    -5.076263  -3.563491  4.347777
H    -6.120706  -3.239516  3.113029
O    2.256011  -0.280703  3.386135
H    1.703463  0.071246  4.112617
Ba    1.646316  -0.896453  -1.090973
