25
Energy: -238663.2694 eV PBE+vdW (tier 2 basis)
N    0.591759  -0.103444  0.154932
C    -0.082426  -0.229956  1.485924
C    0.827307  0.326783  2.544096
O    1.815606  1.046892  2.256822
H    1.004785  -1.015345  -0.076879
H    -0.143730  0.017461  -0.548503
H    -0.991242  0.455650  1.476152
C    -0.630154  -1.647563  1.802371
C    -1.887111  -1.652463  2.700354
C    -3.236608  -1.548429  1.960471
C    -3.375105  -0.453081  0.900744
N    -2.895726  0.866807  1.372778
H    0.166541  -2.263790  2.246934
H    -0.882398  -2.129751  0.846364
H    -1.847966  -0.836223  3.448291
H    -1.894776  -2.578409  3.289742
H    -4.025187  -1.426347  2.717821
H    -3.446084  -2.510861  1.470777
H    -4.426740  -0.424304  0.575020
H    -2.790928  -0.714912  0.002662
H    -3.182761  1.593297  0.713513
H    -3.354783  1.111906  2.254218
O    0.586157  0.124522  3.813923
H    -0.203962  -0.444023  3.950777
Ba    2.664055  1.796662  0.143036
