25
Energy: -238662.881199 eV PBE+vdW (tier 2 basis)
N    -0.201418  0.692552  0.735651
C    0.266453  0.024306  1.991953
C    1.754402  -0.282341  1.841597
O    2.440230  0.263323  0.949028
H    -0.606212  -0.037048  0.135162
H    -1.007852  1.276425  0.978410
H    0.210038  0.781219  2.796156
C    -0.584811  -1.191048  2.417898
C    -2.059174  -0.861514  2.686035
C    -2.816291  -2.060507  3.266080
C    -4.297803  -1.759144  3.543124
N    -4.933396  -2.903692  4.170251
H    -0.168022  -1.607860  3.352293
H    -0.493691  -1.987142  1.659784
H    -2.555639  -0.537207  1.755448
H    -2.119700  -0.011730  3.387872
H    -2.350334  -2.382708  4.209668
H    -2.744066  -2.915916  2.574351
H    -4.784014  -1.433761  2.599980
H    -4.369321  -0.910354  4.239512
H    -5.778645  -2.659634  4.680532
H    -5.153050  -3.653518  3.517097
O    2.364066  -1.091895  2.667423
H    1.751861  -1.507788  3.309360
Ba    1.892204  1.901448  -0.742458
