25
Energy: -238664.410864 eV PBE+vdW (tier 2 basis)
N    -0.531851  -1.282268  0.848685
C    0.494671  -0.436090  1.427437
C    1.853422  -0.449924  0.712187
O    2.676067  0.520333  0.898961
H    -2.129076  -1.108029  6.051621
H    -0.812927  -0.954550  -0.074584
H    0.154498  0.610255  1.371029
C    0.732673  -0.794708  2.919493
C    -0.561762  -0.927538  3.738808
C    -1.393041  0.358817  3.827457
C    -2.754984  0.187786  4.484702
N    -2.638476  -0.219063  5.953127
H    1.399913  -0.041727  3.362779
H    1.262795  -1.758322  2.972554
H    -0.262484  -1.272104  4.744217
H    -1.179514  -1.720038  3.291517
H    -1.616433  0.724812  2.814445
H    -0.830685  1.167147  4.323918
H    -3.346648  -0.601372  4.003582
H    -3.337501  1.116496  4.479256
H    -3.564504  -0.339009  6.386053
H    -2.129376  0.491707  6.496683
O    2.159863  -1.423579  -0.065032
H    -0.201008  -2.241460  0.732303
Ba    4.303364  -0.390574  -0.704199
