25
Energy: -238663.138157 eV PBE+vdW (tier 2 basis)
N    -0.388850  0.546701  0.337462
C    0.123599  -0.160065  1.558834
C    1.645616  -0.125469  1.535301
O    2.272997  0.586559  0.717902
H    -0.640634  -0.183514  -0.341003
H    -1.294760  0.959098  0.583209
H    -0.165334  0.448523  2.435071
C    -0.492753  -1.564584  1.730674
C    -0.262092  -2.247089  3.094087
C    -1.275183  -3.374656  3.380773
C    -2.690162  -2.897952  3.728308
N    -3.368348  -2.248658  2.586458
H    -0.150902  -2.220209  0.912527
H    -1.588458  -1.446802  1.635680
H    -0.330678  -1.503132  3.907358
H    0.741315  -2.716754  3.153460
H    -0.898957  -3.964524  4.227995
H    -1.307790  -4.067714  2.524461
H    -2.634963  -2.163825  4.546119
H    -3.252553  -3.760147  4.124438
H    -3.700430  -2.961793  1.933160
H    -4.208838  -1.770488  2.914003
O    2.331674  -0.820454  2.396979
H    1.750174  -1.404038  2.944368
Ba    1.511884  2.208274  -0.899152
