25
Energy: -238663.691487 eV PBE+vdW (tier 2 basis)
N    0.457794  -0.308149  0.209248
C    0.269746  0.062340  1.669448
C    1.644797  0.083457  2.327808
O    1.754735  0.587532  3.488186
H    -0.346606  -0.878288  -0.102822
H    0.530896  0.511155  -0.406082
H    -0.177031  1.063752  1.706949
C    -0.663414  -0.965144  2.346168
C    -2.011810  -1.139204  1.639780
C    -2.853884  0.129768  1.480688
C    -4.325252  -0.211128  1.173916
N    -4.884232  -1.025788  2.252144
H    -0.820829  -0.605925  3.372637
H    -0.140920  -1.932773  2.422294
H    -2.607370  -1.850204  2.235361
H    -1.893571  -1.650510  0.661511
H    -2.472163  0.793515  0.684821
H    -2.816274  0.712310  2.416981
H    -4.373640  -0.793373  0.241518
H    -4.873451  0.727228  0.983580
H    -5.248149  -0.445714  3.007699
H    -5.659548  -1.597965  1.923122
O    2.634982  -0.450341  1.714238
H    1.337768  -0.849598  0.128432
Ba    4.170459  0.035280  3.731572
