15
Energy: -98048.5640151 eV PBE+vdW (tier 2 basis)
N    -0.323435  -0.773115  -0.320252
C    -0.239800  0.055503  0.931258
C    1.186068  0.525212  1.311682
O    1.504222  0.737801  2.451271
H    0.086722  -0.217983  -1.082650
H    0.333772  -1.559865  -0.229384
H    -0.821600  0.975335  0.748487
C    -0.844874  -0.687759  2.112019
O    -2.221142  -1.091257  1.734155
H    -0.887892  -0.033216  2.988752
H    -0.278563  -1.594026  2.368932
H    -2.730440  -1.230172  2.553337
O    1.939771  0.671322  0.207953
H    2.824803  1.009822  0.463500
Sr    -2.755612  -1.506601  -0.552059
