15
Energy: -98048.5269839 eV PBE+vdW (tier 2 basis)
N    -0.199966  1.124909  -0.528015
C    -0.417904  0.745266  0.860711
C    1.028002  0.528654  1.303565
O    1.797960  1.412778  1.733679
H    -0.541095  2.051909  -0.766412
H    -0.495332  0.432035  -1.211750
H    -0.837502  1.573472  1.446807
C    -1.280177  -0.497574  1.078758
O    -0.558945  -1.611231  0.450972
H    -2.252555  -0.374434  0.585310
H    -1.428717  -0.701008  2.149059
H    -0.990420  -2.466046  0.630572
O    1.569034  -0.690191  1.098483
H    0.734594  -1.348470  0.784727
Sr    3.845105  0.288083  1.573907
