15
Energy: -98048.8584207 eV PBE+vdW (tier 2 basis)
N    0.409351  -1.449101  0.126842
C    -0.437233  -0.322109  0.679454
C    0.282914  0.068647  1.980110
O    1.232912  -0.575771  2.385733
H    1.176062  -1.566932  0.841725
H    -0.121411  -2.326212  0.061280
H    -0.406942  0.519865  -0.024983
C    -1.902938  -0.749179  0.887658
O    -2.041610  -1.802499  1.804185
H    -2.320828  -1.026012  -0.096992
H    -2.438533  0.155551  1.219105
H    0.816632  -1.236792  -0.791670
O    -0.258334  1.137381  2.547035
H    0.268230  1.398709  3.332468
Sr    -2.986270  -3.004543  3.250049
