15
Energy: -98049.314658 eV PBE+vdW (tier 2 basis)
N    -0.090892  -0.031357  -0.056288
C    -0.087516  0.063415  1.456245
C    1.369949  0.061541  1.930366
O    2.196593  -0.692805  1.306563
H    -0.987551  -0.386841  -0.420855
H    0.666717  -0.677701  -0.343750
H    0.082939  0.880922  -0.502001
H    -0.582393  0.994856  1.752056
C    -0.812478  -1.186751  2.026801
O    -0.347151  -1.371073  3.345391
H    -0.563419  -2.060611  1.392434
H    -1.899925  -1.019396  1.980250
H    -1.037134  -1.795418  3.880846
O    1.685870  0.731375  2.954440
Sr    3.704063  -0.452524  3.177972
