15
Energy: -98049.5565541 eV PBE+vdW (tier 2 basis)
N    0.159679  -0.432428  0.024732
C    0.171065  -0.263411  1.503526
C    1.614943  -0.495816  1.983220
O    2.323582  -1.325969  1.398371
H    -0.805578  -0.343432  -0.311786
H    0.662037  0.347987  -0.412568
H    -0.191639  0.727964  1.821957
C    -0.754037  -1.317950  2.134086
O    -0.372511  -2.627827  1.615155
H    -1.796994  -1.105439  1.856181
H    -0.669976  -1.309799  3.229529
H    -0.875330  -3.308263  2.097259
O    2.089049  0.122629  3.032821
H    1.495253  0.803432  3.409247
Sr    1.343456  -2.788678  -0.186731
