15
Energy: -98048.4897496 eV PBE+vdW (tier 2 basis)
N    4.047043  -0.117922  -0.083455
C    4.082280  -0.580644  1.266226
C    5.485596  -1.064994  1.675459
O    6.533330  -0.685019  1.104515
H    3.974842  -0.836988  -0.799282
H    3.388790  0.635938  -0.256520
H    3.915228  0.286808  1.933229
C    2.999494  -1.631912  1.590768
O    3.212750  -2.087658  3.009160
H    3.064379  -2.507112  0.930637
H    2.000444  -1.188700  1.548514
H    2.713699  -2.899815  3.231255
O    5.590225  -1.878653  2.713861
H    4.323456  -2.164977  3.076672
Sr    8.067419  -1.690751  2.552172
