15
Energy: -98048.6485551 eV PBE+vdW (tier 2 basis)
N    -1.709261  -1.084471  -1.762859
C    -1.736648  -0.654867  -0.303180
C    -0.336189  -0.267767  0.196151
O    -0.162851  0.164026  1.301482
H    -0.934187  -1.744819  -1.928375
H    -1.555864  -0.287796  -2.396866
H    -2.376577  0.236285  -0.251156
C    -2.338771  -1.773613  0.567723
O    -3.703077  -1.986982  0.308510
H    -2.160390  -1.455644  1.607465
H    -1.760432  -2.703876  0.410580
H    -2.601096  -1.537061  -2.011134
O    0.601241  -0.504471  -0.750024
H    1.484085  -0.255315  -0.401920
Sr    -5.641983  -2.533634  0.938603
