15
Energy: -98049.0475585 eV PBE+vdW (tier 2 basis)
N    -0.258280  -1.405688  0.287968
C    -0.070033  -0.317797  1.276874
C    1.424559  -0.155005  1.559380
O    2.030246  -0.773494  2.461051
H    -1.145317  -1.278271  -0.208083
H    0.466541  -1.426235  -0.432054
H    -0.454792  0.658141  0.943413
C    -0.816980  -0.799654  2.535455
O    -0.472302  -2.207768  2.706253
H    -1.903700  -0.713575  2.400169
H    -0.543124  -0.239133  3.440142
H    -0.457037  -2.480108  1.722777
O    2.012644  0.688714  0.756315
H    2.974582  0.775907  0.943976
Sr    1.516375  -2.538570  3.955173
