15
Energy: -98048.7186324 eV PBE+vdW (tier 2 basis)
N    -0.060120  -1.094357  -0.228542
C    -0.082976  -0.190507  0.966617
C    1.386546  0.176232  1.303888
O    2.299844  -0.456485  0.823237
H    0.008081  -0.491967  -1.058959
H    0.890408  -1.520677  -0.193598
H    -0.653903  0.717098  0.730240
C    -0.698242  -0.893754  2.173301
O    -1.992113  -1.490083  1.765405
H    -0.874598  -0.179312  2.985246
H    -0.057481  -1.707296  2.543167
H    -2.612704  -1.432117  2.513913
O    1.450926  1.187545  2.161796
H    2.388030  1.391338  2.373440
Sr    -2.047999  -2.659617  -0.317138
