15
Energy: -98049.2367263 eV PBE+vdW (tier 2 basis)
N    0.056372  1.119349  2.013218
C    0.504105  0.514810  3.264751
C    1.795304  1.259109  3.661795
O    2.531880  0.874547  4.603786
H    -0.936686  1.348919  1.997690
H    0.282931  0.578205  1.176663
H    -0.229711  0.740433  4.056110
C    0.686564  -1.010258  3.183508
O    1.075981  -1.591988  4.487110
H    1.456557  -1.282137  2.447327
H    -0.265522  -1.462764  2.882957
H    0.554569  -2.406403  4.598402
O    2.055761  2.304384  2.968374
H    1.283756  2.306301  2.276568
Sr    2.890758  -0.861307  5.990434
