15
Energy: -98049.1102017 eV PBE+vdW (tier 2 basis)
N    -0.321857  -1.168195  0.159335
C    -0.090178  -0.262761  1.356433
C    1.428765  -0.098468  1.583703
O    2.040737  -0.555210  2.549495
H    -1.280641  -1.054297  -0.202271
H    0.328497  -1.019464  -0.624531
H    -0.516641  0.724548  1.129940
C    -0.762509  -0.987990  2.530023
O    -0.223847  -2.277848  2.605415
H    -1.857141  -1.005630  2.371132
H    -0.610305  -0.364702  3.436452
H    -0.231408  -2.135310  0.550887
O    1.981584  0.612145  0.621103
H    2.943453  0.751011  0.774612
Sr    1.478492  -2.559829  3.952272
