15
Energy: -98048.8738222 eV PBE+vdW (tier 2 basis)
N    0.065608  -0.525833  -0.368260
C    -0.708009  -0.562705  0.932410
C    0.395386  -0.502625  1.999444
O    1.564582  -0.620193  1.689538
H    1.072559  -0.642335  -0.071619
H    -0.030769  0.367683  -0.866617
H    -1.354148  0.321685  0.991278
C    -1.581581  -1.854468  0.988216
O    -2.416365  -1.875568  2.090932
H    -0.905906  -2.731406  0.976806
H    -2.169413  -1.876810  0.049864
H    -0.196835  -1.281652  -1.015061
O    -0.069511  -0.323004  3.236685
H    0.702873  -0.264396  3.840609
Sr    -3.722469  -2.188375  3.687775
