34
Energy: -36752.6937015 eV PBE+vdW (tier 2 basis)
C    -0.133716  -0.798107  0.213995
C    -0.089936  0.124673  1.394925
O    0.952328  0.751890  1.675087
H    0.301194  -0.291332  -0.654970
H    -1.138519  -1.157802  -0.032380
H    0.505738  -1.664830  0.434667
N    -1.239416  0.240555  2.122141
C    -1.468177  0.806890  3.462574
C    -0.943483  2.219410  3.698035
O    -1.651594  2.987510  4.493528
H    -2.019942  -0.311055  1.780428
H    -2.559643  0.915079  3.530856
C    -1.045618  -0.146938  4.620935
C    0.421348  -0.572283  4.671238
C    0.704052  -1.530687  5.836024
C    2.116560  -2.129828  5.779760
N    2.291436  -2.977578  4.610276
H    -1.685100  -1.038323  4.528411
H    -1.342419  0.333396  5.569265
H    1.082114  0.305605  4.755868
H    0.702985  -1.082182  3.739334
H    -0.031493  -2.352312  5.829048
H    0.578312  -1.016211  6.801229
H    2.303803  -2.673558  6.725080
H    2.864629  -1.325305  5.730395
H    1.810368  -3.873328  4.674935
H    3.262955  -3.131254  4.350945
N    0.175484  2.621344  3.182696
C    0.764381  3.938019  3.383545
H    0.660398  1.854268  2.537260
H    1.670161  4.006728  2.774824
H    1.040578  4.087893  4.436616
H    0.073064  4.731355  3.066719
Ca    -2.688323  4.266272  5.628894
