34
Energy: -36755.6585826 eV PBE+vdW (tier 2 basis)
C    -0.254449  0.446276  0.236997
C    -1.023044  -0.118625  1.391348
O    -1.385894  -1.329158  1.366945
H    0.657681  -0.146724  0.087972
H    0.018455  1.499616  0.357021
H    -0.858922  0.334427  -0.673683
N    -1.292690  0.713332  2.412836
C    -2.077683  0.572976  3.664090
C    -1.552254  -0.515478  4.608451
O    -1.335454  -1.704903  4.227022
H    -0.933094  1.653704  2.275918
H    -1.879063  1.524953  4.170340
C    -3.621164  0.563595  3.467203
C    -4.312524  -0.617849  2.766077
C    -4.622250  -1.828883  3.662881
C    -5.093167  -3.073640  2.911751
N    -4.038389  -3.610680  1.972628
H    -3.839322  1.483162  2.905738
H    -4.069307  0.716503  4.462056
H    -3.731969  -0.903479  1.876775
H    -5.266400  -0.242412  2.367538
H    -5.412249  -1.553291  4.377243
H    -3.760147  -2.096770  4.298220
H    -6.016796  -2.865904  2.353257
H    -5.324106  -3.868557  3.631021
H    -4.253036  -4.598752  1.802066
H    -4.180078  -3.176460  1.053598
N    -1.362918  -0.195418  5.883567
C    -1.525413  1.102248  6.550777
H    -1.051797  -0.974037  6.464260
H    -1.281363  0.966452  7.607905
H    -2.559145  1.461687  6.484593
H    -0.836766  1.850475  6.138789
Ca    -1.711002  -3.070097  2.581106
