34
Energy: -36753.8102994 eV PBE+vdW (tier 2 basis)
C    -2.552334  -3.779531  0.700182
C    -1.474541  -2.847041  1.134533
O    -0.246181  -3.186826  1.046241
H    -2.609333  -3.820574  -0.398724
H    -3.536027  -3.517006  1.100006
H    -2.277928  -4.789418  1.033668
N    -1.771585  -1.620428  1.614305
C    -2.730742  -0.721562  0.971061
C    -2.156619  -0.369062  -0.434211
O    -0.979393  -0.757127  -0.769057
H    -0.988011  -1.142487  2.063527
H    -3.677952  -1.259592  0.815433
C    -3.001229  0.494137  1.886561
C    -4.049994  1.486335  1.374680
C    -4.669605  2.342056  2.486861
C    -5.822004  3.205833  1.955989
N    -6.847576  2.366920  1.320582
H    -2.049957  1.011613  2.095390
H    -3.341098  0.065021  2.841126
H    -4.897160  0.960680  0.895113
H    -3.609348  2.163184  0.624367
H    -3.910268  2.988068  2.952306
H    -5.049511  1.679602  3.282127
H    -5.435785  3.901421  1.195541
H    -6.202240  3.829336  2.782979
H    -7.458593  2.933243  0.733011
H    -7.452781  1.944959  2.026665
N    -2.925024  0.316241  -1.252307
C    -2.581556  0.775689  -2.598144
H    -3.832489  0.608213  -0.883929
H    -1.600019  0.390467  -2.879885
H    -2.565685  1.872439  -2.617527
H    -3.338640  0.418384  -3.306005
Ca    0.741564  -1.989315  -0.443383
