34
Energy: -36753.7428282 eV PBE+vdW (tier 2 basis)
C    0.599872  -0.734262  0.965497
C    0.404059  -0.233332  2.354164
O    1.407451  0.011720  3.106015
H    -0.321177  -1.101727  0.504726
H    1.334211  -1.551513  1.008906
H    1.046556  0.043912  0.328756
N    -0.835787  -0.018425  2.843143
C    -1.869189  0.718062  2.111671
C    -1.326952  2.140265  1.845674
O    -0.278679  2.550765  2.468300
H    -0.869904  0.122409  3.854871
H    -2.062312  0.218145  1.151627
C    -3.169083  0.741005  2.946938
C    -3.785245  -0.645364  3.149344
C    -4.212007  -1.356970  1.862842
C    -5.170978  -2.526684  2.156169
N    -6.383278  -2.034860  2.809986
H    -3.895163  1.395204  2.445483
H    -2.950447  1.221902  3.916142
H    -4.686547  -0.519650  3.769265
H    -3.103568  -1.290212  3.728043
H    -3.345582  -1.747436  1.301480
H    -4.730186  -0.643912  1.196714
H    -4.673872  -3.233019  2.837411
H    -5.356729  -3.077548  1.217929
H    -6.820792  -2.757797  3.377971
H    -7.080375  -1.734440  2.129258
N    -1.934020  2.946465  0.996767
C    -3.108522  2.693420  0.156268
H    -1.532650  3.883437  0.935556
H    -3.288142  1.621288  0.043585
H    -2.925276  3.126684  -0.832937
H    -3.996368  3.168006  0.593054
Ca    1.535619  2.121450  3.523902
