34
Energy: -36754.511795 eV PBE+vdW (tier 2 basis)
C    -0.190728  2.113546  0.392560
C    -0.809422  1.212170  1.410715
O    -0.779631  -0.043692  1.239475
H    -0.275541  3.177403  0.635699
H    -0.667659  1.926599  -0.579427
H    0.870376  1.851774  0.281045
N    -1.381900  1.774966  2.484598
C    -2.118235  1.182747  3.631463
C    -1.237874  0.259526  4.482096
O    -0.874359  -0.880755  4.045584
H    -1.351772  2.790733  2.494809
H    -2.347887  2.059825  4.246188
C    -3.504516  0.576403  3.301303
C    -3.663002  -0.767778  2.567747
C    -5.138674  -1.116566  2.271637
C    -5.751658  -0.365315  1.081603
N    -5.789322  1.090059  1.293484
H    -4.057173  1.319673  2.700418
H    -4.041671  0.500538  4.259657
H    -3.260734  -1.591709  3.200702
H    -3.141610  -0.725556  1.588556
H    -5.735036  -0.938182  3.180489
H    -5.220736  -2.194364  2.069794
H    -6.743029  -0.807317  0.881905
H    -5.145128  -0.557102  0.182410
H    -5.977872  1.567127  0.411300
H    -6.568036  1.336504  1.908195
N    -0.896614  0.624545  5.708881
C    -1.194065  1.874702  6.420056
H    -0.356926  -0.076411  6.217999
H    -0.685918  1.836503  7.387436
H    -2.270131  1.981852  6.604318
H    -0.812378  2.744004  5.871966
Ca    -1.064883  -1.916308  2.189240
