34
Energy: -36754.3652577 eV PBE+vdW (tier 2 basis)
C    2.104444  1.370450  0.785523
C    1.300486  0.971766  1.986757
O    1.825748  0.518493  3.017039
H    2.914919  2.037101  1.103672
H    1.518458  1.853760  -0.003557
H    2.578080  0.468440  0.373285
N    -0.058843  1.141817  1.907081
C    -1.059753  0.587379  2.816187
C    -1.015426  1.071738  4.277764
O    -2.143777  1.135443  4.914870
H    -0.422297  1.553528  1.053982
H    -2.021706  0.972727  2.447081
C    -1.127899  -0.969786  2.753348
C    -2.234805  -1.517958  3.654015
C    -2.652341  -2.984002  3.553974
C    -3.489456  -3.388896  4.770220
N    -4.582062  -2.385093  5.077061
H    -0.157173  -1.398311  3.036576
H    -1.317802  -1.249202  1.707845
H    -3.139784  -0.907862  3.424506
H    -1.914696  -1.342737  4.705124
H    -1.769534  -3.637297  3.515188
H    -3.205236  -3.156099  2.618751
H    -2.849801  -3.441095  5.663601
H    -3.923730  -4.386839  4.625092
H    -5.257148  -2.419090  4.301915
H    -5.118129  -2.764909  5.866557
N    0.131464  1.336871  4.839725
C    0.324864  1.820224  6.201433
H    0.968907  1.073915  4.234611
H    1.101381  2.592786  6.190036
H    0.666375  1.001374  6.849054
H    -0.603987  2.243384  6.593485
Ca    -3.777623  -0.049371  5.479031
