34
Energy: -36754.9969669 eV PBE+vdW (tier 2 basis)
C    -1.091135  -1.203213  0.165933
C    -0.825525  -0.849685  1.593763
O    0.330099  -0.374399  1.902035
H    -0.990234  -0.303577  -0.456523
H    -2.086313  -1.630168  0.013553
H    -0.326839  -1.913755  -0.176626
N    -1.792031  -1.033338  2.476364
C    -1.733457  -0.949558  3.944793
C    -1.393884  0.435060  4.506769
O    -0.220743  0.926919  4.436430
H    -2.649071  -1.660638  2.198059
H    -2.772469  -1.155311  4.243030
C    -0.865277  -2.057354  4.578897
C    -1.148468  -3.466836  4.033170
C    -2.605267  -3.985293  4.136732
C    -3.370698  -4.118341  2.815287
N    -3.823016  -2.815774  2.239032
H    -1.037473  -2.028921  5.665883
H    0.203441  -1.832785  4.431940
H    -0.488046  -4.145606  4.588424
H    -0.809635  -3.530753  2.987812
H    -3.194135  -3.386881  4.852920
H    -2.581215  -4.990306  4.578118
H    -4.231617  -4.785983  2.965744
H    -2.725727  -4.599237  2.066678
H    -4.182806  -2.980004  1.295052
H    -4.635669  -2.482973  2.765846
N    -2.359582  1.087382  5.133230
C    -2.211506  2.384085  5.796218
H    -3.281929  0.660426  5.148314
H    -2.890166  2.419210  6.653907
H    -2.464945  3.198316  5.104888
H    -1.180556  2.503149  6.139861
Ca    1.493896  0.749145  3.193469
