34
Energy: -36752.8010051 eV PBE+vdW (tier 2 basis)
C    0.589739  2.018032  1.600132
C    0.471872  0.544475  1.415762
O    1.579224  -0.159503  1.322286
H    1.405038  2.242712  2.297730
H    -0.335924  2.471152  1.966821
H    0.841416  2.485668  0.636173
N    -0.661676  -0.087708  1.333792
C    -2.046906  0.379771  1.457688
C    -2.793720  -0.974474  1.682559
O    -2.141246  -2.026285  1.557101
H    -0.727425  -1.145499  1.280704
H    -2.142038  0.994002  2.366254
C    -2.544933  1.192556  0.240129
C    -2.490292  0.510422  -1.137852
C    -3.504068  -0.612537  -1.412347
C    -4.967522  -0.161219  -1.423783
N    -5.861853  -1.310587  -1.422399
H    -1.959359  2.122839  0.200698
H    -3.568935  1.522381  0.470417
H    -1.474743  0.119800  -1.311176
H    -2.624537  1.303595  -1.888815
H    -3.392503  -1.438333  -0.696526
H    -3.262560  -1.045110  -2.395587
H    -5.131531  0.516610  -2.285443
H    -5.204110  0.433673  -0.526764
H    -5.693140  -1.951287  -2.197663
H    -6.847088  -1.051115  -1.424089
N    -4.089297  -0.908998  1.987669
C    -4.955412  -2.083969  2.091993
H    -4.525436  0.004963  2.052189
H    -5.474436  -2.252397  1.137069
H    -5.687635  -1.922670  2.889519
H    -4.340547  -2.955666  2.331276
Ca    3.264302  -1.227685  1.275201
