34
Energy: -36752.7065557 eV PBE+vdW (tier 2 basis)
C    -0.318333  -0.559322  -0.082221
C    -0.102235  -0.319269  1.372303
O    1.055913  -0.654837  1.889556
H    0.547225  -0.193624  -0.648709
H    -1.225885  -0.082621  -0.462104
H    -0.393529  -1.641792  -0.263009
N    -0.997657  0.200242  2.162050
C    -2.341588  0.727981  1.892763
C    -2.582630  1.585701  3.174307
O    -1.799778  1.427161  4.126861
H    -0.802167  0.414914  3.178011
H    -2.308611  1.373148  1.003260
C    -3.402376  -0.380750  1.707286
C    -3.654413  -1.248131  2.946479
C    -4.647563  -2.392942  2.703888
C    -6.094367  -1.942415  2.459359
N    -6.965963  -3.084920  2.292724
H    -3.094963  -1.014334  0.860464
H    -4.329319  0.110308  1.382410
H    -4.012804  -0.618398  3.776541
H    -2.702935  -1.682509  3.290942
H    -4.632243  -3.052183  3.585297
H    -4.322586  -3.012369  1.853531
H    -6.167838  -1.339387  1.541738
H    -6.408583  -1.280926  3.295707
H    -7.039091  -3.696344  3.103008
H    -7.885049  -2.879261  1.910692
N    -3.615347  2.435403  3.212861
C    -4.590305  2.754983  2.174425
H    -3.712442  2.915257  4.105880
H    -4.883206  3.804581  2.281082
H    -5.491567  2.132381  2.257920
H    -4.158090  2.633962  1.175377
Ca    2.856711  -1.075444  2.663508
