34
Energy: -36754.9732345 eV PBE+vdW (tier 2 basis)
C    -0.933542  -0.729505  -0.201030
C    -1.169964  -0.726350  1.272955
O    -1.595474  -1.778609  1.854311
H    -0.618819  0.242836  -0.593386
H    -1.843208  -1.055514  -0.721570
H    -0.155060  -1.473404  -0.424841
N    -0.913895  0.387809  1.963703
C    -0.891234  0.551445  3.436780
C    -2.341003  0.709101  3.939946
O    -3.065072  -0.361449  3.964799
H    -0.583536  1.187966  1.428057
H    -0.534545  -0.403449  3.856093
C    0.136979  1.644590  3.768506
C    0.650115  1.697426  5.221301
C    -0.279610  2.194722  6.338530
C    -0.652558  3.679731  6.304954
N    -1.471034  4.070509  5.112189
H    -0.240021  2.619485  3.428319
H    1.010824  1.426264  3.135672
H    1.548349  2.333501  5.210280
H    1.016618  0.693825  5.489261
H    0.246432  2.029381  7.290245
H    -1.190478  1.580239  6.408679
H    0.257280  4.295433  6.358358
H    -1.238529  3.911704  7.202739
H    -2.195553  2.760912  4.486148
H    -2.149636  4.783539  5.386727
N    -2.821855  1.868656  4.294319
C    -4.207345  2.020685  4.738563
H    -0.881042  4.533203  4.418288
H    -4.904960  1.734570  3.942478
H    -4.369186  3.072477  4.991266
H    -4.409465  1.402529  5.623003
Ca    -3.062972  -2.339260  3.271358
