34
Energy: -36753.6798111 eV PBE+vdW (tier 2 basis)
C    -1.153940  -1.115077  -0.807377
C    -0.741297  -1.144699  0.624263
O    -0.209989  -2.200610  1.114401
H    -0.936693  -0.148640  -1.274504
H    -2.237062  -1.294971  -0.901489
H    -0.634421  -1.917864  -1.340306
N    -0.916201  -0.085357  1.446474
C    -2.159349  0.692044  1.577519
C    -3.263264  -0.291996  2.064276
O    -2.982507  -1.511735  2.337420
H    -0.399972  -0.180095  2.321247
H    -1.967042  1.379795  2.416350
C    -2.557113  1.568589  0.371864
C    -1.440565  2.521653  -0.057458
C    -1.865626  3.478569  -1.174663
C    -0.836566  4.601386  -1.381371
N    -0.698212  5.401673  -0.161566
H    -3.421305  2.178355  0.682353
H    -2.915641  0.949851  -0.463280
H    -0.553445  1.949964  -0.376682
H    -1.119009  3.133540  0.801380
H    -2.837362  3.934856  -0.920934
H    -2.014355  2.938060  -2.122381
H    -1.130277  5.187562  -2.269183
H    0.144067  4.158998  -1.612430
H    0.189106  5.901781  -0.146801
H    -1.431055  6.108826  -0.100368
N    -4.487527  0.167053  2.217592
C    -5.622313  -0.614343  2.721796
H    -4.657204  1.139512  1.970779
H    -5.408821  -0.988127  3.729990
H    -5.831168  -1.457961  2.053586
H    -6.498078  0.038161  2.759433
Ca    -1.591380  -3.146890  2.455856
