34
Energy: -36755.6920738 eV PBE+vdW (tier 2 basis)
C    -2.287631  -0.272049  -0.422453
C    -2.151301  0.633532  0.761373
O    -1.099049  0.604600  1.459201
H    -1.459359  -0.078708  -1.117307
H    -3.236551  -0.162336  -0.957175
H    -2.184455  -1.312628  -0.085490
N    -3.181967  1.446954  1.041328
C    -3.404746  2.441139  2.120249
C    -2.329048  3.542580  2.168102
O    -1.138330  3.306377  2.524834
H    -3.967128  1.361583  0.401875
H    -4.329428  2.932880  1.790604
C    -3.766022  1.883099  3.526142
C    -2.706572  1.299500  4.477139
C    -2.420610  -0.207061  4.375494
C    -1.203924  -0.635510  5.196769
N    0.097882  -0.318609  4.495504
H    -4.566326  1.143158  3.374017
H    -4.248247  2.729383  4.037427
H    -3.060498  1.493181  5.500493
H    -1.783461  1.909713  4.431973
H    -2.294434  -0.539943  3.334740
H    -3.297950  -0.750645  4.753607
H    -1.247345  -1.710022  5.416690
H    -1.192326  -0.111440  6.161827
H    0.840099  -0.337568  5.203385
H    0.315950  -1.127229  3.900810
N    -2.728551  4.772985  1.871303
C    -1.879598  5.964047  1.926563
H    -3.689291  4.904418  1.567028
H    -1.465935  6.184400  0.933907
H    -1.062040  5.795070  2.631954
H    -2.484229  6.813436  2.259736
Ca    0.144423  1.578713  2.911348
