34
Energy: -36752.6730012 eV PBE+vdW (tier 2 basis)
C    -0.443477  0.615959  -0.344647
C    -0.150198  0.637599  1.119292
O    0.819949  1.406643  1.556427
H    -0.710011  1.626704  -0.684249
H    -1.265264  -0.063794  -0.590429
H    0.451328  0.299797  -0.898909
N    -0.848750  -0.099872  1.930845
C    -0.773517  -0.289685  3.380642
C    -1.474843  -1.680017  3.527466
O    -2.207330  -2.043036  2.596475
H    -1.582362  -0.775183  1.585075
H    0.277693  -0.329005  3.702638
C    -1.543847  0.833720  4.116936
C    -1.410913  0.801859  5.643187
C    -2.198704  1.917640  6.348912
C    -3.721265  1.716239  6.344993
N    -4.094097  0.464032  6.986772
H    -1.174899  1.801049  3.737859
H    -2.599666  0.765484  3.816039
H    -0.346940  0.877928  5.921528
H    -1.783511  -0.155551  6.035301
H    -1.972433  2.898978  5.902888
H    -1.854844  1.976465  7.392947
H    -4.112964  1.695851  5.317222
H    -4.185065  2.597597  6.827860
H    -3.917993  0.453628  7.990909
H    -5.058533  0.188500  6.814463
N    -1.245891  -2.377021  4.644491
C    -1.894058  -3.654163  4.941725
H    -0.635204  -1.978138  5.349297
H    -2.359856  -4.028941  4.026627
H    -2.665161  -3.524447  5.711772
H    -1.146524  -4.373205  5.293929
Ca    2.383889  2.652263  1.685921
