34
Energy: -36754.4572794 eV PBE+vdW (tier 2 basis)
C    0.769582  0.303281  0.495999
C    0.324787  0.414551  1.914524
O    1.037099  1.046058  2.765269
H    0.830048  1.315813  0.070491
H    0.099724  -0.302729  -0.122375
H    1.782706  -0.117917  0.457908
N    -0.832716  -0.142695  2.280354
C    -1.516500  0.027189  3.578767
C    -0.833773  -0.845976  4.652826
O    0.239210  -0.419618  5.203138
H    -1.360959  -0.627411  1.556804
H    -1.345057  1.066045  3.901013
C    -3.026638  -0.179278  3.393259
C    -3.888285  0.180680  4.610126
C    -3.778735  1.637518  5.074706
C    -4.969395  2.035861  5.968496
N    -6.222871  1.891130  5.231390
H    -3.231425  -1.213001  3.058218
H    -3.327364  0.462297  2.549783
H    -3.685987  -0.495388  5.457108
H    -4.939239  0.012026  4.331077
H    -3.764039  2.306998  4.196700
H    -2.844060  1.822661  5.632596
H    -4.791489  3.051273  6.364034
H    -5.003279  1.365159  6.840116
H    -7.010407  1.736654  5.857764
H    -6.437726  2.726603  4.688012
N    -1.364802  -2.006375  4.972746
C    -0.850190  -2.950436  5.965026
H    -2.237413  -2.252817  4.508346
H    -1.637075  -3.167424  6.696849
H    0.012555  -2.512589  6.470662
H    -0.557664  -3.883945  5.468649
Ca    1.741982  1.014214  4.750705
