34
Energy: -36753.0085025 eV PBE+vdW (tier 2 basis)
C    -0.276589  -1.569083  0.342517
C    -0.083703  -0.495476  1.356201
O    1.153364  -0.251107  1.772080
H    0.585020  -1.610280  -0.332894
H    -1.190027  -1.419965  -0.241964
H    -0.351874  -2.544640  0.846789
N    -1.035125  0.218136  1.867323
C    -2.477306  0.294011  1.583001
C    -2.851968  1.564841  2.420321
O    -1.892736  2.259000  2.833564
H    -0.864221  1.099904  2.467630
H    -2.595345  0.579263  0.523733
C    -3.319058  -0.954929  1.859593
C    -3.518232  -1.318766  3.336378
C    -4.796388  -2.138718  3.591385
C    -6.072439  -1.585231  2.943721
N    -6.227977  -0.123461  3.145506
H    -2.925893  -1.810808  1.292878
H    -4.291884  -0.742643  1.394914
H    -3.563253  -0.398747  3.936733
H    -2.650956  -1.879705  3.715160
H    -4.939531  -2.214712  4.679774
H    -4.667124  -3.172166  3.236472
H    -6.932230  -2.154859  3.330877
H    -6.060347  -1.761774  1.858214
H    -7.107017  0.176220  2.717402
H    -6.340580  0.069775  4.144658
N    -4.132544  1.847562  2.604769
C    -4.537350  3.052797  3.327554
H    -4.857249  1.091874  2.543063
H    -4.031378  3.929748  2.910683
H    -4.289064  2.984082  4.395796
H    -5.618597  3.173461  3.214295
Ca    2.959455  0.251884  2.376237
