34
Energy: -36752.4414781 eV PBE+vdW (tier 2 basis)
C    0.082535  0.504759  -0.204974
C    0.171925  0.146008  1.235691
O    1.371165  -0.038631  1.725004
H    -0.936040  0.645993  -0.559646
H    0.544528  -0.291280  -0.801261
H    0.653908  1.432921  -0.360441
N    -0.831177  0.118935  2.099260
C    -2.262801  -0.127776  1.846173
C    -2.331539  -1.555843  1.211428
O    -1.413062  -1.899977  0.462682
H    -0.536258  -0.071984  3.055975
H    -2.715281  -0.108455  2.845596
C    -2.969098  0.946759  0.983786
C    -4.475542  1.067620  1.245007
C    -5.090414  2.243376  0.478039
C    -6.596833  2.390951  0.731295
N    -7.140499  3.523698  0.016545
H    -2.814767  0.739063  -0.083600
H    -2.488677  1.912985  1.200767
H    -4.655082  1.200474  2.324836
H    -4.985194  0.138461  0.950545
H    -4.916067  2.111482  -0.602620
H    -4.596419  3.184777  0.762212
H    -6.782548  2.548798  1.803754
H    -7.104291  1.439920  0.463069
H    -7.125616  3.456905  -0.998354
H    -8.036378  3.866680  0.351330
N    -3.389274  -2.344992  1.478715
C    -4.493920  -2.188328  2.419226
H    -3.362011  -3.220331  0.957691
H    -4.590818  -3.102392  3.017283
H    -5.441948  -2.012310  1.894791
H    -4.317189  -1.354494  3.103679
Ca    3.314433  -0.522195  1.951471
