 26
Energy: -16507.63010015.7 eV PBE+vdW (tier 2 basis)
N   -0.646080   -0.232982  -0.111509
C   -0.169810    0.078476   1.228190
C    1.345500   -0.093448   1.392485
O    2.043953   -0.835933   0.735000
H   -0.332293   -1.168109  -0.380208
H   -0.237048    0.407467  -0.792212
H   -0.402659    1.133654   1.440488
C   -0.868991   -0.785193   2.302462
C   -2.386448   -0.574487   2.419241
C   -3.221311   -1.375112   1.420090
N   -4.640685   -1.185344   1.688808
C   -5.582721   -1.674203   0.799947
N   -5.226814   -2.210517  -0.316177
N   -6.893399   -1.534735   1.295322
H   -0.398820   -0.555878   3.268953
H   -0.649225   -1.846571   2.097475
H   -2.625281    0.496089   2.318842
H   -2.687071   -0.861779   3.441660
H   -2.942563   -2.444855   1.468350
H   -3.022687   -1.047298   0.394776
H   -4.910292   -1.273303   2.664820
H   -6.040754   -2.411186  -0.902777
H   -7.607494   -1.734342   0.602747
H   -7.070771   -0.650488   1.766516
O    1.840364    0.685659   2.397965
H    2.795187    0.483770   2.452021
