 26
Energy: -16507.65825615.7 eV PBE+vdW (tier 2 basis)
N    0.270246   -0.248678  -0.173400
C   -0.279618   -0.034356   1.165349
C    0.835528    0.525736   2.034452
O    1.994600    0.172737   1.985328
H   -0.323258   -0.892138  -0.697529
H    1.191337   -0.684133  -0.087943
H   -1.066554    0.733115   1.102653
C   -0.859617   -1.316513   1.825319
C   -1.519231   -1.171054   3.202011
C   -2.712709   -0.195669   3.261807
N   -3.770617   -0.426565   2.292526
C   -4.657943   -1.489402   2.384592
N   -4.804419   -2.331037   3.349240
N   -5.464163   -1.608324   1.244025
H   -0.047174   -2.056316   1.887069
H   -1.595412   -1.728035   1.115335
H   -0.782581   -0.843233   3.951686
H   -1.849332   -2.171769   3.517280
H   -2.363831    0.836406   3.122834
H   -3.156605   -0.228689   4.268199
H   -3.591563   -0.101322   1.348713
H   -4.082892   -2.220578   4.064467
H   -6.189162   -2.303728   1.398449
H   -5.853464   -0.730080   0.909751
O    0.383458    1.456707   2.919238
H    1.158717    1.719108   3.454077
