 26
Energy: -16507.55944415.7 eV PBE+vdW (tier 2 basis)
N    0.024524   -0.058493  -0.039634
C   -0.079333   -0.072835   1.425183
C    1.314186   -0.072403   2.059553
O    2.092052   -1.007680   2.061410
H    0.591976   -0.847185  -0.357055
H    0.484791    0.792885  -0.363585
H   -0.586631    0.853446   1.729421
C   -0.913717   -1.276172   1.878475
C   -1.082515   -1.391475   3.407037
C   -0.222798   -2.499137   4.018379
N   -0.286630   -2.455277   5.474389
C    0.447976   -3.310178   6.286784
N   -0.067502   -3.690685   7.407254
N    1.686466   -3.686553   5.765879
H   -0.451878   -2.194362   1.481206
H   -1.885562   -1.180156   1.377901
H   -2.138752   -1.582872   3.649500
H   -0.830433   -0.437283   3.897462
H    0.816187   -2.359991   3.691703
H   -0.547617   -3.478947   3.616764
H   -1.224111   -2.358567   5.858376
H    0.604392   -4.220538   7.968131
H    2.317590   -4.091862   6.446929
H    2.145405   -3.022117   5.149606
O    1.632246    1.144090   2.584836
H    2.549439    1.068537   2.915894
