 26
Energy: -16507.77210215.7 eV PBE+vdW (tier 2 basis)
N   -0.108879    0.424013   0.185876
C   -0.080181    0.156691   1.628519
C    1.313580    0.167411   2.279304
O    1.565978   -0.238583   3.393039
H    0.392542    1.287275  -0.024658
H    0.375132   -0.321227  -0.317789
H   -0.604461    0.995878   2.121873
C   -0.823838   -1.147546   1.987972
C   -2.342729   -1.041748   2.190471
C   -3.197983   -0.742123   0.946371
N   -3.030128    0.583112   0.374064
C   -3.548042    1.705729   1.000883
N   -4.425402    1.787139   1.944314
N   -2.986444    2.892194   0.501492
H   -0.384523   -1.521864   2.921361
H   -0.595077   -1.899613   1.212652
H   -2.549949   -0.284720   2.963430
H   -2.687787   -2.001930   2.606465
H   -4.260777   -0.889319   1.190745
H   -2.965874   -1.471181   0.154378
H   -2.084930    0.712419  -0.009126
H   -4.680025    0.864258   2.302666
H   -3.515561    3.696792   0.826764
H   -2.867407    2.901396  -0.508423
O    2.260482    0.739459   1.479038
H    3.082401    0.742333   2.007303
