 26
Energy: -16507.55973315.7 eV PBE+vdW (tier 2 basis)
N   -0.468317    0.716319  -0.405172
C   -0.340521   -0.004096   0.854831
C    1.136788   -0.264126   1.098596
O    1.968085   -0.423195   0.230021
H   -1.429090    0.703196  -0.743484
H    0.127795    0.281745  -1.111884
H   -0.698304    0.640991   1.672214
C   -1.072842   -1.376189   0.949062
C   -2.587636   -1.311095   0.730910
C   -3.340979   -0.481444   1.769124
N   -4.781347   -0.606864   1.554134
C   -5.704123    0.187656   2.225710
N   -6.755336    0.584722   1.593611
N   -5.347534    0.489651   3.541880
H   -0.865087   -1.818053   1.936649
H   -0.631966   -2.049998   0.198262
H   -2.985560   -2.337231   0.746318
H   -2.808301   -0.921210  -0.277920
H   -3.019510    0.575744   1.732453
H   -3.079656   -0.854377   2.773148
H   -5.054793   -0.673136   0.576170
H   -7.418262    1.049733   2.219120
H   -6.101049    0.880565   4.095669
H   -4.829449   -0.227360   4.041682
O    1.424791   -0.354797   2.425904
H    2.374699   -0.577636   2.480351
