 26
Energy: -16507.63578815.7 eV PBE+vdW (tier 2 basis)
N   -0.780476    0.645616  -0.615684
C   -0.402370    0.351186   0.765565
C    1.086883    0.462453   1.101815
O    1.533370    0.835874   2.166698
H   -0.545327    1.607946  -0.857591
H   -0.257285    0.046205  -1.255964
H   -0.894946    1.086301   1.419721
C   -0.886170   -1.060644   1.159997
C   -2.411969   -1.159945   1.215475
C   -2.939413   -2.589783   1.399080
N   -2.706369   -3.473198   0.254033
C   -1.531845   -4.191741   0.043589
N   -0.982323   -4.452492  -1.095364
N   -0.928547   -4.667134   1.208117
H   -0.455895   -1.332306   2.135062
H   -0.478206   -1.777124   0.430203
H   -2.835790   -0.730693   0.294177
H   -2.791323   -0.542989   2.047192
H   -4.023856   -2.555951   1.583313
H   -2.485689   -3.048564   2.286964
H   -3.091121   -3.117540  -0.616408
H   -1.432553   -3.929752  -1.852145
H   -0.172513   -5.305348   0.978318
H   -1.564490   -5.051796   1.901010
O    1.885169    0.061116   0.070061
H    2.801790    0.125930   0.401020
