 26
Energy: -16507.71879315.7 eV PBE+vdW (tier 2 basis)
N    0.221584    0.344399   0.194848
C   -0.431846    0.298980   1.510789
C    0.581939    0.257902   2.664879
O    1.448943   -0.601679   2.728645
H    0.905207   -0.416424   0.146352
H    0.763269    1.206825   0.111988
H   -1.062953    1.193462   1.609984
C   -1.294317   -0.984739   1.589334
C   -2.496509   -1.019539   2.555038
C   -2.317694   -0.531198   3.994192
N   -1.214102   -1.209109   4.713955
C   -0.778410   -0.612033   5.898023
N    0.413098   -0.100311   5.963376
N   -1.732086   -0.589630   6.892995
H   -0.614612   -1.827140   1.793659
H   -1.682474   -1.151296   0.574258
H   -2.873484   -2.053961   2.569981
H   -3.307494   -0.406056   2.132367
H   -3.258476   -0.707866   4.533806
H   -2.146074    0.559013   3.995822
H   -0.402199   -1.364490   4.116937
H    0.675015    0.175843   6.912894
H   -1.461491   -0.221649   7.795843
H   -2.395318   -1.355797   6.913889
O    0.372582    1.183973   3.611526
H    0.715751    0.805987   4.498698
