 26
Energy: -16507.65520215.7 eV PBE+vdW (tier 2 basis)
N    0.292035   -0.023544  -0.087822
C    0.204938   -0.134594   1.380566
C    1.615125    0.086590   1.974919
O    1.817745    0.327386   3.144897
H   -0.383714   -0.630550  -0.550461
H    0.115546    0.929487  -0.403691
H   -0.452467    0.627817   1.828195
C   -0.315459   -1.532340   1.769318
C   -0.606878   -1.711324   3.259659
C   -1.039356   -3.138680   3.593346
N   -1.327765   -3.262445   5.011264
C   -2.020265   -4.304096   5.608915
N   -2.253583   -4.443775   6.870757
N   -2.570569   -5.226122   4.715029
H    0.412764   -2.287397   1.429279
H   -1.241870   -1.709293   1.196145
H   -1.400508   -1.015359   3.572021
H    0.287355   -1.446177   3.843084
H   -0.246148   -3.841148   3.262789
H   -1.952340   -3.394021   3.034051
H   -0.733093   -2.733456   5.638110
H   -1.922686   -3.634829   7.403648
H   -2.985913   -5.999396   5.226535
H   -1.961253   -5.541095   3.965646
O    2.600129   -0.052961   1.067923
H    2.106515   -0.187549   0.209145
