 26
Energy: -16507.62836215.7 eV PBE+vdW (tier 2 basis)
N   -0.320150   -0.234677   0.189008
C   -0.381196   -0.040221   1.635953
C    0.859664    0.566642   2.308052
O    0.873401    1.029883   3.429619
H    0.562850   -0.672314  -0.086379
H   -0.335310    0.668671  -0.284155
H   -1.182230    0.686420   1.839418
C   -0.772621   -1.327967   2.398410
C    0.200098   -2.525624   2.307061
C   -0.244156   -3.647417   1.353433
N   -0.213509   -3.331920  -0.073612
C    0.970666   -3.214670  -0.795579
N    1.153724   -2.477033  -1.841695
N    2.041669   -3.967609  -0.314202
H   -1.767400   -1.623762   2.031337
H   -0.901233   -1.042148   3.450659
H    0.297493   -2.973548   3.307407
H    1.215247   -2.202160   2.028774
H   -1.276848   -3.943451   1.595375
H    0.370512   -4.538883   1.535268
H   -0.867080   -2.593063  -0.329968
H    0.321913   -1.914638  -2.041815
H    2.790790   -3.992823  -0.999737
H    1.808622   -4.890381   0.039501
O    1.969579    0.515346   1.520136
H    2.693515    0.897818   2.053546
