 26
Energy: -16507.67676415.7 eV PBE+vdW (tier 2 basis)
N    0.639490   -0.818367  -0.171255
C    0.048434   -0.461902   1.118893
C    1.064855    0.178185   2.068796
O    2.179108   -0.250392   2.288938
H    1.466807   -1.398892  -0.014907
H    0.964736    0.018643  -0.656785
H   -0.754276    0.267422   0.938214
C   -0.552398   -1.718039   1.773443
C   -1.271907   -1.468311   3.099825
C   -1.926625   -2.736476   3.642143
N   -2.592877   -2.471378   4.909655
C   -3.007284   -3.527456   5.704452
N   -2.711530   -4.742787   5.395726
N   -3.774066   -3.091364   6.799901
H    0.257720   -2.450604   1.921861
H   -1.241637   -2.154077   1.035568
H   -2.036491   -0.684180   2.959220
H   -0.570651   -1.083597   3.856322
H   -1.177688   -3.517161   3.827950
H   -2.627455   -3.156550   2.897002
H   -3.231171   -1.681030   4.903170
H   -2.986507   -5.389321   6.139200
H   -3.949366   -3.819110   7.484657
H   -3.433019   -2.240114   7.240584
O    0.583789    1.311893   2.656089
H    1.293838    1.631061   3.248259
