 26
Energy: -16507.60826215.7 eV PBE+vdW (tier 2 basis)
N    0.725156   -0.142392  -0.306412
C    0.262482   -0.080117   1.072995
C    1.401119   -0.060130   2.100235
O    2.574047   -0.263751   1.861748
H    1.403444   -0.898603  -0.412953
H    1.235210    0.709317  -0.541334
H   -0.267300    0.876508   1.207154
C   -0.780988   -1.187698   1.366701
C   -0.342674   -2.638551   1.127342
C    0.651252   -3.205497   2.153178
N    0.914521   -4.637988   2.000635
C   -0.064783   -5.612614   2.192579
N   -0.180701   -6.727580   1.555312
N   -0.985055   -5.307669   3.196154
H   -1.634153   -0.973386   0.708803
H   -1.138206   -1.072065   2.400820
H    0.069922   -2.749454   0.111746
H   -1.244484   -3.267679   1.154138
H    0.279006   -3.012821   3.170119
H    1.625281   -2.702852   2.087994
H    1.521508   -4.861629   1.218249
H    0.457894   -6.768080   0.756139
H   -1.563644   -6.116080   3.404186
H   -0.594101   -4.882642   4.032010
O    0.948802    0.230973   3.353193
H    1.735733    0.227299   3.932562
