 26
Energy: -16507.65422515.7 eV PBE+vdW (tier 2 basis)
N    0.265382   -0.320450  -0.408259
C    0.170192   -0.196071   1.055817
C    1.549910   -0.561873   1.602355
O    2.382643    0.220573   2.009323
H   -0.520782    0.154847  -0.851136
H    0.217174   -1.303124  -0.682894
H    0.059598    0.871960   1.277909
C   -0.989880   -1.001906   1.680913
C   -1.124477   -1.031072   3.210375
C   -1.327950    0.332510   3.892687
N   -0.109421    1.108100   4.002550
C    0.865824    0.862120   4.957991
N    0.813833    0.033081   5.945946
N    1.998847    1.653005   4.755282
H   -0.903360   -2.039003   1.320603
H   -1.919389   -0.601274   1.241190
H   -0.248294   -1.521354   3.661380
H   -1.986056   -1.671024   3.456972
H   -1.776642    0.177465   4.890143
H   -2.054648    0.934196   3.327186
H   -0.066723    2.012453   3.551081
H   -0.120388   -0.370969   6.050969
H    2.720311    1.409490   5.428414
H    2.346764    1.603912   3.797349
O    1.774279   -1.903069   1.542644
H    2.684801   -2.041161   1.869017
