 26
Energy: -16507.55433515.7 eV PBE+vdW (tier 2 basis)
N   -0.037590   -1.001589  -0.224730
C   -0.110653   -0.197058   0.988998
C    1.205083    0.387497   1.535654
O    1.319919    0.955768   2.602499
H    0.364630   -0.460930  -0.989332
H    0.578193   -1.804530  -0.094013
H   -0.696012    0.705753   0.740614
C   -0.899777   -0.919271   2.102660
C   -0.426082   -2.332406   2.464426
C    0.989792   -2.418770   3.032417
N    1.269333   -3.784304   3.466680
C    2.538295   -4.203906   3.842859
N    2.891320   -5.418492   3.588345
N    3.315689   -3.212013   4.445046
H   -1.941406   -0.985795   1.761437
H   -0.888905   -0.279025   2.995581
H   -0.508875   -2.990006   1.582911
H   -1.122975   -2.743130   3.210998
H    1.071916   -1.727050   3.885937
H    1.733404   -2.081787   2.285370
H    0.824586   -4.510059   2.909801
H    3.794192   -5.644233   4.013232
H    2.815718   -2.508194   4.980710
H    4.132441   -3.563894   4.930912
O    2.247095    0.252086   0.665945
H    3.008552    0.683507   1.100506
