 26
Energy: -16507.73258615.7 eV PBE+vdW (tier 2 basis)
N   -0.299670    0.306044   0.340682
C   -0.041387   -0.101916   1.717139
C    1.450326   -0.203168   2.043184
O    2.326405   -0.434884   1.235499
H    0.326412   -0.209644  -0.282597
H   -0.069680    1.291878   0.215567
H   -0.483236    0.644319   2.394395
C   -0.698026   -1.469545   2.014594
C   -2.222985   -1.421507   1.920241
C   -2.888718   -2.800290   2.055001
N   -2.679517   -3.490724   3.318016
C   -3.341918   -3.127700   4.483164
N   -4.299802   -2.278674   4.632258
N   -2.851848   -3.810046   5.605062
H   -0.387042   -1.798107   3.017597
H   -0.295353   -2.204115   1.295552
H   -2.507684   -0.989127   0.950161
H   -2.613172   -0.745256   2.697067
H   -2.524555   -3.465293   1.257009
H   -3.973593   -2.704984   1.898839
H   -1.754284   -3.880969   3.462547
H   -4.480699   -1.753874   3.774199
H   -3.441381   -3.627167   6.412456
H   -2.709094   -4.806863   5.462232
O    1.696358   -0.031841   3.371827
H    2.658701   -0.155840   3.490385
