 26
Energy: -16507.83703315.7 eV PBE+vdW (tier 2 basis)
N   -0.158675   -0.690603  -0.034182
C   -0.195859   -0.106617   1.317536
C    1.215651    0.463381   1.644082
O    2.077774    0.305598   0.631172
H    1.498821   -0.172254  -0.051824
H   -0.366996   -1.698713  -0.035722
H   -0.861030    0.772933   1.325464
C   -0.637279   -1.055921   2.440434
C   -2.149485   -1.267975   2.633121
C   -2.836533   -2.392990   1.843932
N   -3.154571   -2.115430   0.451345
C   -2.568213   -2.757100  -0.607597
N   -1.459317   -3.409032  -0.448343
N   -3.233007   -2.533520  -1.820310
H   -0.233611   -0.627782   3.367934
H   -0.134927   -2.027960   2.303972
H   -2.685559   -0.317820   2.468177
H   -2.312759   -1.511919   3.694690
H   -3.775343   -2.652194   2.360277
H   -2.204744   -3.290512   1.840385
H   -3.897182   -1.459019   0.248492
H   -1.198700   -3.917682  -1.294978
H   -2.851087   -3.053477  -2.602552
H   -4.247754   -2.585670  -1.785995
O    1.490787    1.002270   2.696111
H   -0.831093   -0.249214  -0.656902
