 26
Energy: -16507.67623015.7 eV PBE+vdW (tier 2 basis)
N   -0.250293    0.679424   0.386293
C   -0.121068    0.081174   1.730075
C    1.359884    0.175750   2.180223
O    1.806848   -0.415678   3.137082
H   -1.133263    1.172558   0.271057
H    1.448521    1.295719   0.707771
H   -0.671321    0.732581   2.429742
C   -0.639667   -1.352060   1.889565
C   -2.136630   -1.511344   1.622132
C   -2.670051   -2.939362   1.845247
N   -2.737917   -3.387113   3.229427
C   -1.638138   -3.709929   4.021791
N   -1.663991   -3.361597   5.263180
N   -0.658793   -4.485525   3.404494
H   -0.392624   -1.667311   2.911300
H   -0.065021   -2.012412   1.215497
H   -2.373452   -1.222672   0.583570
H   -2.703574   -0.821596   2.270263
H   -2.078189   -3.656677   1.253928
H   -3.689532   -3.007983   1.438672
H   -3.408411   -2.878748   3.801194
H   -0.887352   -3.776232   5.784641
H    0.271361   -4.381545   3.792322
H   -0.660660   -4.527286   2.391596
O    2.094073    1.002124   1.411864
H   -0.203830   -0.035844  -0.341013
