 26
Energy: -16507.78587015.7 eV PBE+vdW (tier 2 basis)
N    0.676026   -0.436023   0.234158
C    0.404931   -0.059604   1.637766
C    1.748384   -0.003548   2.406355
O    1.828142    0.159586   3.606314
H    0.449472   -1.417252   0.068147
H    0.123392    0.117290  -0.417362
H    0.062312    0.987396   1.636928
C   -0.673203   -0.890031   2.356237
C   -0.455285   -2.409699   2.410280
C    0.677358   -2.899484   3.335054
N    0.585420   -2.430725   4.714148
C   -0.506888   -2.727138   5.517174
N   -1.015158   -1.807138   6.264819
N   -0.961574   -4.049063   5.390982
H   -1.630464   -0.691294   1.851091
H   -0.781631   -0.499679   3.378025
H   -0.283959   -2.827748   1.401629
H   -1.395092   -2.867101   2.752975
H    1.661910   -2.586551   2.962089
H    0.689682   -3.998961   3.312486
H    0.869682   -1.457789   4.830573
H   -1.706001   -2.194087   6.914245
H   -1.630350   -4.315167   6.105407
H   -0.228313   -4.745247   5.280571
O    2.820985   -0.114316   1.606015
H    2.409992   -0.238760   0.699388
