 26
Energy: -16507.82374615.7 eV PBE+vdW (tier 2 basis)
N   -0.446449    0.785527  -0.006278
C    0.225576    0.453439   1.246362
C    1.770685    0.407723   1.145694
O    2.339859    0.349222   0.072596
H   -0.025159    0.220966  -0.749522
H   -0.229605    1.749748  -0.263190
H   -0.014644    1.251802   1.964717
C   -0.289432   -0.897017   1.784316
C   -1.724583   -0.907321   2.327879
C   -2.070021    0.177327   3.375615
N   -0.979451    0.626720   4.258668
C   -0.043579   -0.213848   4.823042
N    1.214307    0.107022   4.729195
N   -0.559731   -1.352440   5.405607
H    0.398016   -1.265591   2.556167
H   -0.223604   -1.625476   0.960947
H   -1.904303   -1.900915   2.762558
H   -2.437919   -0.791660   1.499375
H   -2.925871   -0.162427   3.979113
H   -2.411841    1.087342   2.866807
H   -0.517839    1.473685   3.944597
H    1.814762   -0.472076   5.319951
H    0.089098   -1.947747   5.904095
H   -1.486021   -1.292577   5.813554
O    2.459240    0.432760   2.297991
H    1.896549    0.412925   3.143194
