 26
Energy: -16507.55589915.7 eV PBE+vdW (tier 2 basis)
N    0.278567   -0.154106   0.071929
C    0.111410   -0.259021   1.524974
C    1.412979   -0.717978   2.181121
O    1.507801   -1.486804   3.117030
H   -0.543876    0.289663  -0.336867
H    1.084101    0.425911  -0.159872
H   -0.089427    0.722142   2.012593
C   -1.041194   -1.199242   1.889881
C   -0.872979   -2.635124   1.371439
C   -1.515076   -3.671556   2.311988
N   -1.086922   -5.042414   2.099202
C    0.143169   -5.550635   2.509600
N    0.627047   -6.705048   2.184553
N    0.835203   -4.765680   3.425104
H   -1.978972   -0.755048   1.522136
H   -1.120367   -1.209697   2.987156
H    0.196415   -2.871142   1.276713
H   -1.283173   -2.737638   0.357188
H   -2.611936   -3.640773   2.225122
H   -1.289580   -3.410199   3.356659
H   -1.471499   -5.515593   1.290438
H   -0.036097   -7.237336   1.614557
H    1.746833   -5.165933   3.620141
H    0.865754   -3.759050   3.283672
O    2.495961   -0.110479   1.627665
H    3.274485   -0.438987   2.118200
