 26
Energy: -16507.51926615.7 eV PBE+vdW (tier 2 basis)
N   -1.566351   -0.564931   0.784643
C   -0.898399   -0.973217   2.014138
C    0.476499   -0.315906   2.228939
O    1.144923    0.156912   1.338620
H   -0.891921   -0.613298   0.016534
H    0.288145   -0.762049   4.111008
H   -1.536492   -0.656520   2.855865
C   -0.766417   -2.516442   2.045261
C   -2.068099   -3.209534   2.457547
C   -2.461632   -3.012529   3.925341
N   -1.699476   -3.828141   4.892509
C   -0.937205   -3.254142   5.901486
N   -1.129793   -3.598759   7.124600
N    0.026263   -2.323977   5.421932
H    0.055144   -2.829424   2.706304
H   -0.470624   -2.840003   1.036524
H   -1.995194   -4.288548   2.255925
H   -2.879480   -2.821768   1.822537
H   -3.524321   -3.267801   4.045304
H   -2.375168   -1.954250   4.212334
H   -2.258097   -4.570699   5.304363
H   -0.391892   -3.245000   7.740572
H    0.608345   -1.973762   6.180443
H    0.619379   -2.753118   4.710281
O    0.923401   -0.297997   3.515189
H   -1.838538    0.416904   0.844798
