 26
Energy: -16507.67918915.7 eV PBE+vdW (tier 2 basis)
N   -0.862785    0.435077   1.208008
C   -0.189877    0.041253   2.438626
C    1.311674    0.066947   2.201300
O    1.853282    0.019178   1.116834
H   -1.786824    0.011442   1.138861
H   -0.312162    0.140888   0.400195
H   -0.396032    0.786938   3.225083
C   -0.602413   -1.341204   3.020473
C   -0.236130   -2.541919   2.148672
C   -0.812263   -3.872822   2.665387
N   -2.262334   -3.950886   2.734212
C   -3.058401   -4.061840   1.601493
N   -2.695961   -4.261802   0.381480
N   -4.421337   -3.921124   1.896184
H   -1.694912   -1.297508   3.160341
H   -0.161452   -1.448020   4.024251
H    0.858765   -2.649508   2.091349
H   -0.582455   -2.370779   1.118560
H   -0.429878   -4.076938   3.676763
H   -0.456182   -4.699350   2.032290
H   -2.696605   -3.463160   3.510230
H   -1.680672   -4.222376   0.272380
H   -4.731249   -4.437773   2.715637
H   -4.982195   -4.144445   1.078484
O    2.006078    0.112818   3.371646
H    2.950674    0.091059   3.123708
