 26
Energy: -16507.70755115.7 eV PBE+vdW (tier 2 basis)
N   -0.319744   -0.544037  -0.176547
C   -0.061204   -0.183508   1.227815
C    1.398161    0.091686   1.590487
O    1.762782    0.749340   2.541212
H    0.457151   -1.092095  -0.547680
H   -0.360900    0.299956  -0.746949
H   -0.584534    0.761866   1.427250
C   -0.644606   -1.212814   2.230822
C    0.005702   -2.600183   2.308161
C   -0.026013   -3.447114   1.019429
N   -1.288690   -3.434018   0.296175
C   -2.367359   -4.154105   0.769797
N   -2.244344   -4.962036   1.769550
N   -3.549432   -3.865387   0.066371
H   -1.710787   -1.315346   1.981037
H   -0.600144   -0.754760   3.229193
H   -0.520038   -3.160786   3.093325
H    1.054683   -2.514624   2.635627
H    0.194518   -4.489852   1.279436
H    0.755479   -3.115957   0.320049
H   -1.505618   -2.532174  -0.129334
H   -3.104028   -5.494805   1.920468
H   -4.298004   -4.526871   0.242234
H   -3.420776   -3.700153  -0.928943
O    2.278919   -0.525977   0.746671
H    3.168118   -0.322281   1.096219
