21
Energy: -168590.362695 eV PBE+vdW (tier 2 basis)
N    -0.126028  0.616356  0.249053
C    -0.179404  -0.156532  1.445295
C    1.269370  -0.457307  1.871168
O    2.211574  0.147106  1.425607
H    0.764463  1.069310  0.029349
H    -0.968525  1.083456  -0.079150
H    -0.525153  0.477128  2.300524
C    -1.192935  -1.321720  1.365041
C    -0.952896  -2.361207  0.241817
C    -0.452469  -3.736527  0.619587
O    -0.615014  -4.757219  -0.145298
N    0.199086  -3.936210  1.747295
H    -2.180225  -0.870001  1.196457
H    -1.274771  -1.792148  2.353760
H    -0.247162  -1.964106  -0.509636
H    -1.895417  -2.524884  -0.301158
H    0.539780  -4.869237  1.975332
H    0.456072  -3.161188  2.362337
O    1.341322  -1.405076  2.834646
H    2.265163  -1.433033  3.167148
Cd    -1.701165  -5.195212  -1.937476
