21
Energy: -168592.030993 eV PBE+vdW (tier 2 basis)
N    -0.641482  0.232637  0.584889
C    -0.002322  -0.223344  1.806086
C    1.542193  -0.495813  1.694013
O    2.113870  -0.420789  0.569343
H    -0.225374  1.089180  0.211403
H    -0.643534  -0.464420  -0.164049
H    -0.055943  0.602464  2.533196
C    -0.678284  -1.484230  2.410277
C    -2.215174  -1.611258  2.228858
C    -3.053195  -0.392539  2.511457
O    -2.876448  0.695623  1.839261
N    -4.012729  -0.410846  3.407372
H    -0.420306  -1.515584  3.476021
H    -0.249281  -2.391022  1.961808
H    -2.551048  -2.448618  2.853212
H    -2.452803  -1.897684  1.191693
H    -4.217827  -1.239793  3.957184
H    -4.606129  0.408631  3.539744
O    2.154014  -0.769439  2.773716
H    -2.059096  0.575734  1.179982
Cd    4.063531  -0.884677  1.619414
