21
Energy: -168592.083888 eV PBE+vdW (tier 2 basis)
N    0.078200  -1.410484  0.241895
C    0.129779  -0.306969  1.266705
C    1.495094  0.377346  1.284590
O    1.714917  1.484414  1.654312
H    0.144563  -1.018905  -0.705575
H    -0.833890  -1.880636  0.286949
H    -0.587391  0.472610  0.967249
C    -0.281000  -0.760759  2.697050
C    0.753823  -1.396347  3.672814
C    0.932932  -2.901966  3.662603
O    1.423760  -3.560670  2.675767
N    0.602136  -3.583594  4.742708
H    -1.182741  -1.386617  2.616856
H    -0.617126  0.160990  3.189632
H    0.452205  -1.095463  4.683664
H    1.756179  -0.955227  3.541737
H    0.228064  -3.134756  5.574236
H    0.751277  -4.592179  4.776419
O    2.532776  -0.494060  0.866033
H    3.388375  -0.011367  0.915778
Cd    1.808070  -2.720359  0.784577
