21
Energy: -168592.500847 eV PBE+vdW (tier 2 basis)
N    0.033995  -2.222113  0.900917
C    0.151407  -0.736652  0.902701
C    1.645518  -0.359117  0.890304
O    2.508637  -1.072208  1.428561
H    -0.918480  -2.504789  1.153183
H    0.207944  -2.600705  -0.037076
H    -0.321150  -0.338097  -0.009385
C    -0.569309  -0.071887  2.115275
C    0.076866  -0.052195  3.531717
C    -0.100450  -1.269511  4.424085
O    0.468131  -2.395323  4.212626
N    -0.861317  -1.153935  5.498348
H    -1.588541  -0.484486  2.161099
H    -0.706692  0.981982  1.837541
H    -0.349993  0.816696  4.048429
H    1.158581  0.156001  3.482187
H    -1.323728  -0.284528  5.747812
H    -0.963113  -1.943197  6.136238
O    2.029552  0.774891  0.367651
H    1.324576  1.266972  -0.100426
Cd    1.606716  -2.817518  2.468019
