21
Energy: -168591.059749 eV PBE+vdW (tier 2 basis)
N    -0.868499  1.105413  0.039836
C    -0.710597  0.567776  1.370745
C    0.711752  1.029821  1.872983
O    1.433513  0.446993  2.735293
H    -1.818065  1.402898  -0.176624
H    -0.511062  0.520518  -0.716156
H    -1.425591  1.092052  2.027227
C    -0.744649  -0.932387  1.698166
C    -1.795015  -2.015379  1.537327
C    -1.272282  -3.253636  2.304053
O    -0.192139  -3.275461  3.003248
N    -1.985667  -4.358841  2.240652
H    -0.677302  -0.855115  2.801241
H    0.176776  -1.352521  1.242244
H    -1.968283  -2.296468  0.489218
H    -2.765840  -1.728593  1.968562
H    -2.851169  -4.409899  1.708129
H    -1.684981  -5.196656  2.738580
O    1.143810  2.102319  1.313405
H    0.461755  2.300187  0.585880
Cd    1.204026  -1.642871  3.296172
