21
Energy: -168592.187379 eV PBE+vdW (tier 2 basis)
N    0.866638  -0.997991  -0.110090
C    0.375424  -0.288315  1.064772
C    1.369885  0.804136  1.590719
O    2.610000  0.677798  1.375425
H    0.757395  -0.464512  -0.975881
H    1.854295  -1.257670  -0.023409
H    -0.534982  0.261319  0.789327
C    0.059719  -1.256907  2.231116
C    -1.191586  -2.139604  2.013685
C    -1.065000  -3.309036  1.066976
O    -0.376010  -3.249109  -0.016845
N    -1.707590  -4.428718  1.319283
H    -0.133747  -0.658602  3.130723
H    0.942163  -1.877635  2.447095
H    -2.032022  -1.528092  1.642232
H    -1.513242  -2.516766  2.993606
H    -2.269756  -4.552118  2.155762
H    -1.670937  -5.198753  0.651715
O    0.868042  1.776671  2.236486
H    0.124863  -2.305448  -0.136299
Cd    2.913447  2.628353  2.489603
