21
Energy: -168590.334624 eV PBE+vdW (tier 2 basis)
N    -0.266604  0.036547  0.546922
C    -0.215108  -0.274837  2.017969
C    1.229529  -0.397412  2.538554
O    1.476451  -0.898650  3.606058
H    0.376902  0.804497  0.308637
H    -0.012783  -0.766496  -0.042929
H    -0.628238  0.622379  2.505470
C    -1.047196  -1.511709  2.402127
C    -2.436208  -1.692135  1.727842
C    -3.292175  -0.452659  1.610641
O    -4.390029  -0.245004  2.327957
N    -2.907353  0.513115  0.842040
H    -1.156347  -1.472226  3.493302
H    -0.469081  -2.423124  2.194798
H    -2.961814  -2.476980  2.284461
H    -2.308816  -2.080374  0.705671
H    -1.295607  0.335215  0.365914
H    -3.561296  1.294261  0.715924
O    2.110799  0.145923  1.684342
H    3.015776  0.097376  2.062604
Cd    -5.862301  -1.501188  3.101597
