21
Energy: -168590.804334 eV PBE+vdW (tier 2 basis)
N    0.853172  -0.339375  -0.054524
C    -0.064003  -0.514746  1.005836
C    0.622878  -0.701641  2.419885
O    -0.052775  -0.855058  3.419732
H    1.346289  -1.145395  -0.434626
H    1.353487  0.542462  -0.143507
H    -0.609112  0.435535  1.141952
C    -1.050740  -1.700058  0.771955
C    -2.521968  -1.306074  0.563417
C    -3.349348  -0.878725  1.756935
O    -4.617562  -0.673172  1.656434
N    -2.812363  -0.701377  2.943349
H    -0.975175  -2.436052  1.582724
H    -0.727321  -2.224121  -0.135749
H    -3.047591  -2.181635  0.144018
H    -2.608866  -0.507510  -0.192467
H    -1.800123  -0.832076  3.141303
H    -3.412413  -0.422555  3.720009
O    1.938042  -0.649298  2.365474
H    2.325170  -0.747627  3.264522
Cd    -6.028214  -0.900558  0.061602
