21
Energy: -168591.36831 eV PBE+vdW (tier 2 basis)
N    -0.254257  -0.697400  0.239282
C    0.403345  -0.810074  1.568455
C    1.564624  -1.837731  1.529427
O    2.170524  -2.091232  0.472405
H    -0.898751  -1.493611  0.122620
H    -0.938886  0.198277  0.332021
H    0.929141  0.148537  1.739786
C    -0.669063  -0.980016  2.672951
C    -1.398828  0.314498  3.084647
C    -2.233309  1.047987  2.038250
O    -1.923497  1.071881  0.814894
N    -3.284782  1.732693  2.469578
H    -0.200422  -1.347222  3.598833
H    -1.383989  -1.763252  2.376817
H    -0.665912  1.050497  3.456370
H    -2.040102  0.070133  3.942560
H    -3.557508  1.757365  3.446931
H    -3.821324  2.296303  1.812674
O    2.007600  -2.403377  2.617487
H    1.496967  -2.185012  3.421831
Cd    1.310484  -1.043721  -1.295565
