21
Energy: -168590.588023 eV PBE+vdW (tier 2 basis)
N    0.169834  -0.500639  0.162485
C    -0.015816  -0.277254  1.649078
C    1.341465  -0.356298  2.368974
O    1.457662  -0.722759  3.512548
H    -0.591817  -0.076133  -0.381433
H    1.064216  -0.099434  -0.156153
H    -0.343849  0.767694  1.766314
C    -1.104712  -1.190836  2.236315
C    -0.745957  -2.635811  2.630556
C    -0.341326  -3.581527  1.538741
O    -0.145605  -4.879860  1.787622
N    -0.072300  -3.209826  0.334987
H    -1.968541  -1.185727  1.554766
H    -1.455265  -0.699179  3.153462
H    -1.632263  -3.062893  3.130098
H    0.056632  -2.629663  3.386331
H    0.145809  -3.957321  -0.335018
H    0.156553  -1.566186  0.003977
O    2.332920  0.077862  1.569788
H    3.179186  0.096099  2.065330
Cd    -0.723515  -6.072053  3.378142
