21
Energy: -168590.675704 eV PBE+vdW (tier 2 basis)
N    -0.828223  0.511849  0.067707
C    -0.319870  0.464958  1.489285
C    1.217272  0.495357  1.342501
O    1.738618  0.330488  0.257774
H    -0.029899  0.195677  -0.528314
H    -1.066962  1.465821  -0.228628
H    -0.649587  1.372716  2.012304
C    -0.768600  -0.802208  2.241636
C    -2.228953  -0.874102  2.728128
C    -3.268117  -1.203212  1.691499
O    -4.525692  -1.504445  2.027104
N    -3.044581  -1.115887  0.427718
H    -0.131069  -0.860314  3.134055
H    -0.525966  -1.692526  1.640919
H    -2.531764  0.061202  3.228684
H    -2.278294  -1.653305  3.507485
H    -1.681965  -0.112658  -0.032434
H    -3.790097  -1.436524  -0.202216
O    1.823448  0.695903  2.503833
H    2.796767  0.702402  2.376052
Cd    -5.367186  -2.256133  3.764208
