21
Energy: -168591.793299 eV PBE+vdW (tier 2 basis)
N    -0.395178  0.149672  0.084231
C    -0.191953  -0.115625  1.428825
C    1.410335  -0.350969  1.849128
O    2.228001  -0.717429  0.987901
H    -0.344067  -0.596874  -0.604425
H    -0.234332  1.084008  -0.279655
H    -0.426271  0.788551  2.009048
C    -1.009781  -1.342696  1.903128
C    -0.894983  -1.820498  3.372167
C    -1.224148  -0.785561  4.409970
O    -0.395676  0.177041  4.694169
N    -2.354460  -0.799265  5.070196
H    -0.762307  -2.206815  1.269699
H    -2.056698  -1.089268  1.684226
H    0.114478  -2.196207  3.595777
H    -1.570254  -2.677914  3.489208
H    -3.051179  -1.524478  4.921749
H    -2.549984  -0.089920  5.778493
O    1.705072  -0.106625  3.057139
H    0.456690  0.106484  4.165663
Cd    3.997814  -0.538934  2.419076
