21
Energy: -168590.740817 eV PBE+vdW (tier 2 basis)
N    0.318156  0.210733  0.055997
C    0.035316  -0.072857  1.407571
C    1.325064  -0.545913  2.211655
O    1.247566  -0.943640  3.350885
H    0.484655  -0.544390  -0.606065
H    0.735271  1.103242  -0.197104
H    -0.240612  0.869776  1.909842
C    -1.106117  -1.120384  1.562626
C    -1.663660  -1.221505  2.987611
C    -2.807645  -2.188660  3.213008
O    -3.262327  -2.429076  4.380749
N    -3.380971  -2.809785  2.197546
H    -0.739024  -2.100060  1.219783
H    -1.893596  -0.789041  0.870498
H    -2.035567  -0.238271  3.324412
H    -0.869233  -1.514682  3.692801
H    -3.092893  -2.656853  1.236496
H    -4.155007  -3.451495  2.363784
O    2.428536  -0.414655  1.490281
H    3.213104  -0.677453  2.021420
Cd    -2.749669  -1.777292  6.393185
