21
Energy: -168591.320234 eV PBE+vdW (tier 2 basis)
N    0.342011  0.550130  -0.042456
C    0.235281  0.067141  1.359938
C    1.580568  0.159779  2.114210
O    2.482380  0.946049  1.768713
H    -0.721020  0.801531  -0.282176
H    0.633182  -0.216379  -0.664274
H    -0.395429  0.816681  1.872656
C    -0.480112  -1.308929  1.460171
C    -1.698637  -1.520088  0.523181
C    -2.623496  -0.325419  0.316785
O    -2.164419  0.773463  -0.102746
N    -3.921866  -0.476230  0.543230
H    -0.826930  -1.421758  2.499350
H    0.233818  -2.120906  1.259490
H    -2.258475  -2.384593  0.900831
H    -1.356191  -1.806273  -0.483704
H    -4.321216  -1.353414  0.860636
H    -4.560277  0.292013  0.343650
O    1.783961  -0.537192  3.197446
H    1.057089  -1.151042  3.424411
Cd    1.990896  2.043347  -0.092635
