21
Energy: -168592.623315 eV PBE+vdW (tier 2 basis)
N    0.204565  -0.751624  -0.098144
C    0.181586  0.163114  1.075792
C    1.365853  -0.224655  1.969322
O    1.708642  -1.411142  2.142131
H    -0.625961  -0.619491  -0.682004
H    1.008760  -0.546979  -0.702451
H    0.306229  1.205219  0.752919
C    -1.117122  0.025875  1.958098
C    -2.400221  -0.579308  1.335621
C    -2.653325  -2.055239  1.621702
O    -1.755065  -2.964205  1.594098
N    -3.890827  -2.420431  1.905225
H    -1.354775  1.041226  2.295251
H    -0.881941  -0.528432  2.879593
H    -2.459382  -0.446919  0.242437
H    -3.254315  -0.005280  1.716637
H    -4.653724  -1.752896  1.974871
H    -4.107233  -3.404124  2.063829
O    1.931643  0.786152  2.563711
H    2.650307  0.502939  3.175142
Cd    0.282470  -2.741774  1.040918
