20
Energy: -568411.567001 eV PBE+vdW (tier 2 basis)
N    0.031560  -0.481042  -0.781188
C    -0.046364  -0.230669  0.711120
C    0.897573  0.992895  0.898816
O    1.802117  1.141391  0.108241
H    -0.689019  0.036919  -1.303845
H    -0.035378  -1.473364  -1.042052
H    -1.091744  -0.017719  0.971838
C    0.490267  -1.478533  1.455313
C    0.534139  -1.300561  2.977797
C    1.078885  -2.542741  3.725250
O    0.792626  -2.603171  4.963175
O    1.781390  -3.385331  3.110723
H    1.500016  -1.707848  1.083408
H    -0.159332  -2.330682  1.205448
H    -0.447827  -1.077093  3.414962
H    1.225776  -0.500331  3.289338
O    0.731700  1.782281  1.956092
H    -0.128344  1.670924  2.403885
H    0.971588  -0.086107  -1.050847
Hg    2.012372  -4.503218  5.194526
