20
Energy: -568411.219237 eV PBE+vdW (tier 2 basis)
N    -0.345118  -0.031324  0.568667
C    0.229806  0.085274  1.916587
C    1.786880  0.184407  1.902916
O    2.416895  0.542658  0.902351
H    -0.357936  -1.005370  0.235356
H    -1.351815  0.333030  0.635438
H    -0.095301  1.069931  2.294920
C    -0.309395  -1.029405  2.877063
C    -1.816815  -1.364171  2.795462
C    -2.776154  -0.221817  2.519872
O    -2.653232  0.543590  1.550181
O    -3.772574  -0.146070  3.368167
H    -0.099754  -0.680970  3.900563
H    0.251627  -1.960800  2.718095
H    -2.112458  -1.847386  3.735510
H    -2.005793  -2.101591  1.998500
O    2.459733  -0.046470  2.997233
H    1.921073  -0.336006  3.760183
H    -4.410267  0.558845  3.113620
Hg    1.027799  1.010878  -0.942423
