20
Energy: -568412.01376 eV PBE+vdW (tier 2 basis)
N    2.138121  1.737336  1.040522
C    1.208527  0.540659  1.107379
C    -0.140881  1.180857  1.519009
O    -0.218811  2.376592  1.713734
H    2.545975  1.881493  0.108454
H    2.904072  1.696916  1.724954
H    1.105861  0.143541  0.087478
C    1.758488  -0.540537  2.063714
C    1.006705  -1.871645  1.938074
C    1.558851  -2.978636  2.867541
O    1.277355  -4.170242  2.522278
O    2.207092  -2.666726  3.899268
H    1.722023  -0.179031  3.101829
H    2.816904  -0.704610  1.810762
H    1.020910  -2.274126  0.917374
H    -0.049949  -1.785973  2.235791
O    -1.122251  0.292366  1.602237
H    -1.962432  0.749071  1.827837
H    1.505131  2.553602  1.282798
Hg    2.302310  -4.995908  4.369969
