20
Energy: -568411.975661 eV PBE+vdW (tier 2 basis)
N    2.050651  1.264967  0.900503
C    0.804302  0.406497  1.031603
C    -0.311768  1.455245  1.298267
O    -0.033567  2.638230  1.325405
H    2.735077  1.110871  1.651045
H    1.668937  2.252293  0.991134
H    0.605113  -0.038714  0.045780
C    0.888951  -0.674477  2.117319
C    1.770251  -1.863749  1.715334
C    1.718373  -3.032320  2.736502
O    2.725670  -3.807579  2.720055
O    0.711874  -3.173659  3.473454
H    -0.135609  -1.026374  2.295939
H    1.228304  -0.227856  3.064746
H    2.830154  -1.615838  1.576211
H    1.420365  -2.330526  0.779041
O    -1.496523  0.896281  1.449029
H    -2.184726  1.585375  1.578543
H    2.527750  1.164940  -0.003625
Hg    1.769420  -5.143605  4.301715
