20
Energy: -568411.502742 eV PBE+vdW (tier 2 basis)
N    -0.650307  0.475849  0.183167
C    -0.258421  -0.000054  1.574305
C    1.217451  0.345246  1.807078
O    1.951437  0.421639  0.783012
H    0.093992  0.246384  -0.497607
H    -0.764253  1.501694  0.159422
H    -0.909003  0.518852  2.287780
C    -0.398913  -1.536928  1.749003
C    0.734212  -2.439024  1.157416
C    1.766919  -2.931960  2.166296
O    2.912357  -2.465480  2.336372
O    1.474505  -3.967259  2.922501
H    -1.363093  -1.841411  1.316403
H    -0.498021  -1.701320  2.830522
H    1.277031  -1.946486  0.340873
H    0.265605  -3.329415  0.715143
O    1.605951  0.294708  3.007255
H    -1.541488  0.061442  -0.129318
H    0.630379  -4.404596  2.693700
Hg    3.712335  -0.320538  2.276173
