20
Energy: -568411.543902 eV PBE+vdW (tier 2 basis)
N    0.817095  -1.199252  -0.086299
C    0.008554  -0.279740  0.812346
C    1.031957  0.607115  1.558117
O    2.173695  0.215325  1.670491
H    1.199738  -1.983183  0.488031
H    1.616294  -0.699453  -0.504284
H    -0.631652  0.320365  0.150753
C    -0.865950  -1.094404  1.790285
C    -0.260750  -1.526347  3.134658
C    0.899333  -2.559813  3.077489
O    1.286949  -2.896137  4.257631
O    1.373292  -3.001273  2.018098
H    -1.295257  -1.958828  1.262710
H    -1.726317  -0.460823  2.057322
H    -1.040224  -1.997861  3.750377
H    0.117555  -0.680322  3.727900
O    0.602827  1.725840  2.128189
H    -0.301115  1.994448  1.873115
H    0.237147  -1.590317  -0.841175
Hg    2.853830  -4.325338  3.815244
