20
Energy: -568411.815907 eV PBE+vdW (tier 2 basis)
N    1.283811  -0.412443  0.185504
C    0.456918  -0.030246  1.354741
C    1.346429  0.043487  2.614367
O    2.389704  -0.598817  2.763939
H    0.715483  -0.677371  -0.625891
H    1.911692  0.344458  -0.110285
H    0.090622  0.999547  1.204432
C    -0.801317  -0.926892  1.557960
C    -0.760031  -2.461421  1.293826
C    0.001976  -3.352462  2.260245
O    1.237640  -3.578257  2.198422
O    -0.617116  -3.976400  3.226047
H    -1.567614  -0.540918  0.871082
H    -1.189331  -0.723445  2.565205
H    -0.387091  -2.692353  0.283677
H    -1.810996  -2.784930  1.281445
O    0.848466  0.861971  3.505583
H    1.401488  0.901419  4.319509
H    -1.589036  -3.861789  3.220495
Hg    2.503304  -2.203141  1.000700
