20
Energy: -568411.488399 eV PBE+vdW (tier 2 basis)
N    0.682931  -0.543767  0.575591
C    -0.237693  0.140141  1.513181
C    0.568732  1.091853  2.436691
O    1.746538  0.882743  2.737766
H    1.047006  0.092943  -0.143183
H    0.237181  -1.331246  0.093267
H    -0.911217  0.780370  0.917045
C    -1.144870  -0.837115  2.327261
C    -0.623160  -2.221163  2.816177
C    0.370728  -2.278141  3.966951
O    1.616227  -2.172480  3.836767
O    -0.033780  -2.485880  5.190666
H    -2.001882  -1.070869  1.680232
H    -1.565527  -0.278489  3.175152
H    -0.190452  -2.808129  1.991272
H    -1.521631  -2.782060  3.112244
O    -0.032761  2.133827  2.951106
H    -0.936830  2.299899  2.614144
H    -0.994150  -2.652756  5.277020
Hg    2.401327  -1.245324  1.982300
