20
Energy: -568411.313664 eV PBE+vdW (tier 2 basis)
N    0.128582  0.641897  0.657526
C    0.285073  0.021201  1.984409
C    1.761169  0.096416  2.491402
O    2.577325  0.888871  2.013435
H    0.444266  -0.004175  -0.081298
H    -0.917066  0.812361  0.482544
H    -0.273194  0.649981  2.700365
C    -0.345693  -1.407094  1.942186
C    -1.870095  -1.455236  2.110040
C    -2.745381  -0.718509  1.114578
O    -2.384365  0.245467  0.422482
O    -3.970670  -1.184802  1.088537
H    0.070025  -2.019693  2.755337
H    -0.031804  -1.917418  1.018409
H    -2.167624  -1.080216  3.104366
H    -2.187815  -2.509139  2.088824
O    2.138759  -0.635306  3.505794
H    1.456386  -1.237122  3.861913
H    -4.543164  -0.667245  0.479021
Hg    1.615807  2.357258  0.409540
