20
Energy: -568411.765874 eV PBE+vdW (tier 2 basis)
N    -1.068990  0.479405  1.241105
C    0.328437  -0.056504  1.544429
C    1.392832  1.005618  1.182039
O    2.555564  0.718080  1.087421
H    -1.254445  0.503363  0.226742
H    -1.148799  1.453716  1.576996
H    0.380928  -0.157172  2.640962
C    0.618762  -1.394128  0.856567
C    0.189764  -2.673344  1.581881
C    1.111646  -3.018487  2.791909
O    1.395784  -2.138215  3.634986
O    1.504481  -4.227436  2.824767
H    1.703199  -1.411082  0.670530
H    0.165009  -1.417162  -0.148594
H    0.214345  -3.525908  0.896283
H    -0.821084  -2.633869  2.019286
O    0.838872  2.223929  1.054186
H    1.533039  2.894124  0.872520
H    -1.812185  -0.078693  1.683910
Hg    2.668841  -3.943234  4.733077
