20
Energy: -568411.662679 eV PBE+vdW (tier 2 basis)
N    0.460048  1.869230  1.164886
C    0.814329  1.200345  2.474585
C    1.558989  -0.141643  2.127859
O    2.212710  -0.142464  1.047767
H    -0.007203  2.774044  1.318817
H    -0.186429  1.196656  0.676693
H    1.607762  1.799411  2.951005
C    -0.372316  1.083259  3.437406
C    -1.753574  0.656297  2.907341
C    -1.756828  -0.424341  1.847534
O    -0.918335  -0.451267  0.937456
O    -2.751189  -1.278020  1.962045
H    -0.488782  2.072666  3.908945
H    -0.050423  0.410404  4.242280
H    -2.283736  1.509840  2.449913
H    -2.383443  0.343255  3.749166
O    1.545288  -1.063691  2.979467
H    1.287414  2.027325  0.571697
H    -2.770270  -1.898086  1.200598
Hg    2.976989  -2.301223  1.593540
