20
Energy: -568411.764441 eV PBE+vdW (tier 2 basis)
N    -0.114775  -0.707532  0.014198
C    -0.086038  0.053389  1.324366
C    1.435571  0.219730  1.593459
O    2.236655  -0.195481  0.779961
H    -0.624165  -0.222275  -0.734452
H    0.918936  -0.766969  -0.238095
H    -0.514223  1.049192  1.147505
C    -0.833841  -0.641150  2.496226
C    -2.312487  -0.671848  2.392251
C    -3.171340  0.178105  3.155307
O    -2.706823  1.326716  3.410610
O    -4.429196  -0.085813  3.461043
H    -0.524802  -0.115818  3.408132
H    -0.470506  -1.683875  2.574794
H    -2.791028  -1.268329  1.607624
H    -0.481934  -1.664164  0.094049
O    1.679733  0.846068  2.728992
H    2.648140  0.960856  2.850548
H    -4.688874  -1.012293  3.284777
Hg    -3.314803  2.404284  5.428276
