20
Energy: -568411.972684 eV PBE+vdW (tier 2 basis)
N    0.751862  -0.783223  -0.037419
C    0.179837  -0.255307  1.218594
C    1.283978  0.513406  2.061402
O    0.822319  1.416154  2.821145
H    0.841234  -0.073942  -0.775024
H    0.025988  -1.656896  -0.395501
H    -0.587403  0.488066  0.967651
C    -0.403163  -1.384558  2.094221
C    -1.719803  -1.998581  1.568968
C    -1.663126  -2.815237  0.301212
O    -0.828301  -2.650805  -0.613969
O    -2.604242  -3.716851  0.219023
H    -0.625277  -0.962407  3.082651
H    0.356559  -2.165900  2.247312
H    -2.486613  -1.221151  1.409549
H    -2.128692  -2.648167  2.356969
O    2.475590  0.176783  1.944492
H    1.679240  -1.205166  0.109256
H    -2.570746  -4.197583  -0.638460
Hg    2.885675  1.929097  3.646417
