20
Energy: -568411.471159 eV PBE+vdW (tier 2 basis)
N    0.023107  0.832283  0.769987
C    0.017344  0.068121  1.951527
C    1.356115  -0.728460  2.158108
O    1.412577  -1.804153  2.738724
H    0.198683  1.834449  0.782148
H    -0.083403  0.399289  -0.145604
H    -0.004765  0.765387  2.807383
C    -1.218072  -0.891575  2.004037
C    -1.646092  -1.271197  3.445444
C    -1.501076  -2.750807  3.784949
O    -2.517104  -3.293085  4.282496
O    -0.396483  -3.390449  3.602296
H    -1.021228  -1.770480  1.375447
H    -2.056937  -0.359682  1.540415
H    -2.687273  -0.981726  3.626662
H    -1.049035  -0.763164  4.224388
O    2.389556  -0.080070  1.675190
H    3.227959  -0.564486  1.851617
H    0.351027  -2.780180  3.237773
Hg    -2.376339  -5.486307  4.900140
