20
Energy: -568411.308545 eV PBE+vdW (tier 2 basis)
N    -0.024904  -0.602653  -0.048498
C    0.009437  -0.257772  1.305525
C    1.519645  -0.263401  1.891442
O    1.695387  -0.341098  3.075026
H    0.157443  -1.563657  -0.335247
H    0.100391  0.103082  -0.773833
H    -0.273386  0.802223  1.420383
C    -0.853479  -1.181948  2.179337
C    -2.358810  -0.965213  2.055555
C    -3.059564  -1.229447  0.733120
O    -2.466533  -1.289209  -0.363458
O    -4.369573  -1.373819  0.733144
H    -0.569670  -0.975482  3.224091
H    -0.592657  -2.235364  1.997180
H    -2.636633  0.065556  2.340146
H    -2.848115  -1.624590  2.792023
O    2.404074  -0.132464  0.918622
H    3.316721  -0.077663  1.285607
H    -4.773237  -1.321408  1.624633
Hg    -4.010097  -1.846422  -2.330624
