20
Energy: -568411.437617 eV PBE+vdW (tier 2 basis)
N    0.703353  -0.851861  0.014570
C    0.622862  -0.313338  1.435512
C    1.801667  -1.093631  2.140114
O    2.419179  -0.617738  3.213156
H    1.305861  -0.274798  -0.590222
H    -0.208908  -0.954019  -0.450955
H    0.835417  0.763399  1.379048
C    -0.820847  -0.592632  1.948732
C    -1.254203  -0.264497  3.409815
C    -1.371969  1.198151  3.824557
O    -0.429084  1.883582  4.325410
O    -2.492066  1.847406  3.709387
H    -1.008445  -1.671753  1.839164
H    -1.511376  -0.078761  1.262213
H    -0.614645  -0.782142  4.142038
H    -2.244806  -0.727719  3.534270
O    2.170107  -2.133932  1.633138
H    1.174319  -1.790443  0.120944
H    -3.250687  1.307428  3.406507
Hg    1.459267  0.918298  4.172603
