20
Energy: -568411.614211 eV PBE+vdW (tier 2 basis)
N    0.307214  0.835116  -0.123914
C    0.034825  0.181773  1.225402
C    1.327911  0.526564  2.019189
O    2.274202  1.021469  1.436077
H    1.339637  1.077827  -0.065581
H    -0.215815  1.711607  -0.244762
H    -0.825064  0.687996  1.685332
C    -0.182830  -1.355483  1.203472
C    -1.567516  -1.921723  0.718556
C    -1.557417  -2.831457  -0.505642
O    -1.079590  -2.511343  -1.643892
O    -2.088612  -4.011639  -0.481782
H    -0.061697  -1.681774  2.244992
H    0.661594  -1.835762  0.677860
H    -2.283806  -1.115039  0.477854
H    -2.032888  -2.460363  1.553542
O    1.228545  0.212125  3.294180
H    2.048221  0.456234  3.779634
H    -2.461429  -4.278031  0.384412
Hg    -0.203441  -0.595189  -1.597937
