20
Energy: -568410.84659 eV PBE+vdW (tier 2 basis)
N    -0.043226  -1.369441  0.117860
C    -0.184025  -0.473621  1.183095
C    1.226450  -0.168316  1.903611
O    2.062020  -0.984040  2.136094
H    0.109458  -1.035645  -0.831654
H    0.105189  -2.365798  0.276567
H    -0.495738  0.499337  0.774538
C    -1.168029  -1.011196  2.264213
C    -1.309313  -0.243144  3.596910
C    -1.909002  1.149777  3.507083
O    -3.083201  1.306780  3.900874
O    -1.227419  2.170730  3.048693
H    -0.865355  -2.033018  2.539314
H    -2.146535  -1.097317  1.770958
H    -0.351070  -0.151243  4.134695
H    -1.970718  -0.833871  4.243042
O    1.269805  1.150918  2.235071
H    2.141839  1.349160  2.647599
H    -0.293563  1.934952  2.805699
Hg    -4.124226  3.390311  3.995652
