20
Energy: -568410.930951 eV PBE+vdW (tier 2 basis)
N    0.150001  -0.492632  -0.054725
C    0.210748  -0.123999  1.283478
C    1.701912  -0.042688  1.876723
O    2.692982  -0.334971  1.290445
H    0.092232  0.207313  -0.791633
H    0.351290  -1.445231  -0.355968
H    -0.143672  0.915354  1.378007
C    -0.614967  -1.104656  2.217796
C    -1.617866  -0.345631  3.122507
C    -1.361837  -0.474522  4.614992
O    -2.342034  -0.775192  5.322559
O    -0.188536  -0.251270  5.137145
H    0.060946  -1.749928  2.791736
H    -1.187927  -1.769878  1.562833
H    -2.644066  -0.680027  2.925077
H    -1.622504  0.745016  2.944062
O    1.643709  0.439145  3.155221
H    2.567614  0.570239  3.467125
H    0.487269  0.012859  4.454280
Hg    -2.260112  -0.947082  7.657091
