20
Energy: -568411.758612 eV PBE+vdW (tier 2 basis)
N    1.176401  -1.927682  1.187125
C    0.516841  -0.605413  1.168198
C    1.373882  0.520927  1.875799
O    2.418800  0.196427  2.475508
H    0.451600  -2.578138  0.516938
H    1.264974  -2.329934  2.128357
H    0.481559  -0.290832  0.114473
C    -0.903316  -0.628340  1.780253
C    -1.760863  -1.902643  1.548966
C    -1.660762  -2.600155  0.212614
O    -0.575577  -2.992980  -0.266113
O    -2.804556  -2.810259  -0.382049
H    -1.421604  0.252878  1.379214
H    -0.846644  -0.481880  2.867920
H    -2.808984  -1.631514  1.728752
H    -1.515745  -2.671941  2.299704
O    0.907747  1.690716  1.757893
H    2.110910  -1.919857  0.759802
H    -2.688660  -3.332352  -1.208177
Hg    2.656001  2.573973  2.955823
