20
Energy: -568411.601124 eV PBE+vdW (tier 2 basis)
N    0.115779  -1.111036  -0.305516
C    0.096488  -0.272526  0.961231
C    1.579889  -0.235916  1.403079
O    2.274422  -1.201544  1.148168
H    0.300402  -0.537022  -1.141509
H    -0.759161  -1.627261  -0.469414
H    -0.297842  0.716772  0.695540
C    -0.793835  -0.897446  2.056210
C    -0.448732  -2.301373  2.568648
C    0.783947  -2.415002  3.507530
O    1.118938  -1.440578  4.223787
O    1.353881  -3.551520  3.509111
H    -1.824749  -0.943854  1.667347
H    -0.830205  -0.187246  2.893814
H    -0.325938  -3.056493  1.783082
H    -1.276261  -2.655776  3.205300
O    2.023289  0.789398  2.110646
H    1.389036  1.527785  2.193695
H    0.920494  -1.769668  -0.196334
Hg    2.824160  -2.878697  5.094586
