20
Energy: -568411.524737 eV PBE+vdW (tier 2 basis)
N    -0.194303  0.611368  0.439834
C    -0.069406  -0.070702  1.780809
C    1.451514  -0.038564  2.194769
O    1.666714  -0.109456  3.440493
H    -0.192176  1.638182  0.516358
H    -1.091142  0.299487  -0.021722
H    -0.623431  0.527085  2.515463
C    -0.571155  -1.520463  1.740028
C    -2.111731  -1.695184  1.796664
C    -2.879585  -1.650551  0.493959
O    -3.812829  -2.370398  0.249431
O    -2.456201  -0.689242  -0.392849
H    -0.179447  -2.017287  2.637461
H    -0.134028  -2.052588  0.881986
H    -2.332881  -2.672173  2.246171
H    -2.585054  -0.953271  2.463149
O    2.299370  0.035048  1.285985
H    0.599290  0.344871  -0.166283
H    -3.035089  -0.711160  -1.187024
Hg    3.946478  -0.103333  3.214203
