20
Energy: -568410.89461 eV PBE+vdW (tier 2 basis)
N    0.838472  0.212007  0.740489
C    0.107976  -0.222147  1.945620
C    1.002468  -0.206230  3.228905
O    2.157806  0.230007  3.261810
H    0.315563  0.882440  0.168964
H    1.138403  -0.570973  0.149490
H    -0.663231  0.541479  2.144720
C    -0.540642  -1.607905  1.724205
C    -1.502780  -1.647633  0.517862
C    -2.458216  -2.817505  0.670863
O    -2.587483  -3.380534  1.751986
O    -3.116788  -3.129699  -0.428312
H    -1.123670  -1.893505  2.616247
H    0.239372  -2.378795  1.625217
H    -0.993616  -1.749816  -0.451386
H    -2.132002  -0.743497  0.462807
O    0.492659  -0.646535  4.347243
H    -0.421982  -0.987212  4.279868
H    -3.743764  -3.869854  -0.267333
Hg    2.914331  1.266171  1.317718
