28
Energy: -608821.270474 eV PBE+vdW (tier 2 basis)
N    2.014495  1.438985  3.176520
C    1.575805  0.008807  3.117951
C    0.582779  -0.178743  1.936913
O    0.884228  0.508861  0.823587
H    1.338139  1.991894  3.716994
H    2.904661  1.529333  3.674941
H    2.469923  -0.575483  2.847571
C    1.015451  -0.498202  4.468995
C    0.950267  -1.995714  4.612883
C    2.051568  -2.825763  4.907727
C    -0.167583  -2.842024  4.564906
N    1.652352  -4.110654  5.019608
C    0.284791  -4.170636  4.820320
C    -1.605700  -2.621670  4.311365
C    -0.559622  -5.263311  4.856641
C    -2.454025  -3.830379  4.384482
C    -1.950884  -5.078306  4.633298
H    0.015190  -0.069096  4.622467
H    1.656312  -0.101033  5.271142
H    3.093430  -2.557771  5.060112
H    2.256278  -4.897048  5.240013
H    -1.732089  -2.162275  3.307115
H    -0.172662  -6.263986  5.057937
H    -3.523738  -3.698072  4.219131
H    -2.610365  -5.943578  4.667144
O    -0.367839  -0.919427  2.008699
H    -2.030271  -1.840808  4.972238
Pb    2.062114  2.281099  0.807299
