28
Energy: -608820.773716 eV PBE+vdW (tier 2 basis)
N    1.420140  -0.174769  0.988160
C    0.409324  0.016002  2.075225
C    1.202347  0.334482  3.360066
O    2.233024  1.056854  3.268760
H    1.822015  -1.122201  1.084673
H    0.946594  -0.157761  0.078120
H    -0.110980  0.967982  1.851643
C    -0.639912  -1.116999  2.129978
C    -0.103884  -2.414255  2.642568
C    0.626163  -3.388803  1.953867
C    -0.221210  -2.875886  3.993877
N    0.980913  -4.380796  2.817245
C    0.489618  -4.103620  4.083775
C    -0.881711  -2.377353  5.140970
C    0.590775  -4.820378  5.272285
C    -0.769977  -3.085334  6.337350
C    -0.039588  -4.283505  6.401156
H    -1.066708  -1.216472  1.120233
H    -1.478345  -0.773959  2.754588
H    0.849106  -3.476519  0.894190
H    1.470325  -5.230768  2.555121
H    -1.555124  -1.514938  5.090717
H    1.130044  -5.765214  5.330152
H    -1.283165  -2.724755  7.227112
H    0.019762  -4.821208  7.346025
O    0.824907  0.008499  4.549803
H    0.182454  -0.756953  4.628031
Pb    3.103873  1.637483  1.256941
