28
Energy: -608820.985745 eV PBE+vdW (tier 2 basis)
N    0.010070  0.556095  0.318136
C    0.051478  -0.243192  1.542727
C    1.489153  -0.262001  2.040999
O    2.330816  -1.175122  1.687934
H    0.739323  0.325795  -0.356352
H    0.658670  -2.143604  -0.302529
H    -0.516496  0.307063  2.305030
C    -0.610584  -1.629359  1.406393
C    -0.345200  -2.415260  0.085064
C    -0.279868  -3.894953  0.280261
C    -1.377044  -2.297931  -1.021820
N    -1.073042  -4.498275  -0.561021
C    -1.776475  -3.594408  -1.390332
C    -1.960044  -1.215334  -1.665082
C    -2.711878  -3.880949  -2.376686
C    -2.910244  -1.473276  -2.664106
C    -3.277259  -2.778490  -3.018504
H    -1.694688  -1.484195  1.487708
H    -0.313637  -2.239827  2.270770
H    0.332842  -4.449405  0.987487
H    -1.176794  -5.514100  -0.619608
H    -1.698474  -0.195236  -1.390283
H    -2.992750  -4.900764  -2.636347
H    -3.380446  -0.634928  -3.176351
H    -4.018310  -2.936561  -3.800140
O    1.907129  0.714570  2.775879
H    0.030351  1.558817  0.499286
Pb    4.004401  -0.135170  2.921489
