28
Energy: -608821.945301 eV PBE+vdW (tier 2 basis)
N    -0.889116  0.926008  1.405812
C    -0.171299  -0.044409  2.259614
C    1.116992  -0.432025  1.537348
O    1.212038  -0.391082  0.299619
H    -0.479234  1.861851  1.495463
H    -1.867168  0.996838  1.703504
H    0.092516  0.403574  3.230515
C    -1.060575  -1.322052  2.541352
C    -2.090969  -1.590873  1.488208
C    -3.446189  -1.344362  1.610455
C    -1.895462  -2.065925  0.135290
N    -4.088481  -1.613973  0.426601
C    -3.183393  -2.036674  -0.508899
C    -0.787688  -2.598719  -0.599815
C    -3.361853  -2.418880  -1.846113
C    -0.984790  -2.982075  -1.933805
C    -2.249523  -2.870177  -2.550883
H    -1.565023  -1.157324  3.501545
H    -0.401111  -2.189599  2.690077
H    -4.008518  -1.012056  2.478562
H    -5.091720  -1.540009  0.282449
H    0.173237  -2.782219  -0.118810
H    -4.345363  -2.389276  -2.315192
H    -0.150914  -3.404342  -2.493430
H    -2.364319  -3.180091  -3.588399
O    2.146899  -0.876570  2.214840
H    2.034248  -0.829225  3.185520
Pb    -0.709225  0.038662  -1.026428
