28
Energy: -608820.159925 eV PBE+vdW (tier 2 basis)
N    -0.158830  -0.601762  -0.102885
C    -0.091365  -0.088568  1.261232
C    1.346550  0.267798  1.655543
O    1.883526  -0.096321  2.682576
H    -1.047553  -0.363947  -0.545297
H    0.576921  -0.198917  -0.684015
H    -0.672866  0.843271  1.395096
C    -0.703189  -1.113126  2.266728
C    0.052494  -2.405127  2.249836
C    0.143538  -3.273480  1.136583
C    1.011389  -2.903997  3.233434
N    1.085857  -4.269445  1.399926
C    1.687296  -4.039369  2.650599
C    1.427122  -2.442681  4.510575
C    2.764156  -4.683079  3.269801
C    2.488074  -3.085042  5.116707
C    3.151772  -4.178924  4.502812
H    -1.748346  -1.262198  1.964494
H    -0.708751  -0.681213  3.273966
H    -0.343278  -3.189345  0.169475
H    1.441090  -4.916875  0.696290
H    0.960439  -1.570413  4.962970
H    3.286306  -5.516284  2.801310
H    2.846623  -2.730519  6.082098
H    3.998940  -4.634383  5.014937
O    1.917120  1.047477  0.725772
H    2.814739  1.298451  1.027071
Pb    -0.934977  -4.662379  3.080741
