28
Energy: -608820.865529 eV PBE+vdW (tier 2 basis)
N    0.202847  0.404716  0.048355
C    -0.075900  0.073063  1.430591
C    1.101378  0.713858  2.161216
O    0.959404  1.885828  2.674062
H    0.854876  -0.200674  -0.441022
H    -0.608879  0.638934  -0.514007
H    -0.949309  0.664625  1.737041
C    -0.380800  -1.392560  1.825156
C    0.547996  -2.496407  1.225993
C    0.845584  -3.597009  2.188742
C    0.037126  -3.271076  0.025792
N    0.590229  -4.756284  1.648589
C    0.095349  -4.642534  0.328294
C    -0.452796  -2.890109  -1.215628
C    -0.291358  -5.658750  -0.536089
C    -0.853219  -3.892432  -2.110938
C    -0.771569  -5.251613  -1.781352
H    -1.408438  -1.615467  1.510756
H    -0.379972  -1.456791  2.923708
H    1.233337  -3.511159  3.201371
H    0.731540  -5.651482  2.122660
H    -0.542785  -1.843319  -1.499368
H    -0.227202  -6.711580  -0.264383
H    -1.241735  -3.606950  -3.087517
H    -1.091539  -6.001053  -2.503148
O    2.262763  0.151246  2.201660
H    1.535892  -2.043622  0.996607
Pb    3.171611  2.078869  3.126308
