28
Energy: -608819.96683 eV PBE+vdW (tier 2 basis)
N    -1.059082  0.334487  0.608296
C    -0.208471  -0.119572  1.685570
C    1.216029  -0.449314  1.179368
O    1.464199  -0.614488  0.009927
H    -1.149079  1.348813  0.593732
H    -0.651633  0.049317  -0.288685
H    -0.133968  0.644943  2.471439
C    -0.769382  -1.437505  2.347171
C    -2.156253  -1.199128  2.835036
C    -2.533275  -0.784641  4.131949
C    -3.368586  -1.148240  2.025783
N    -3.898047  -0.480858  4.147716
C    -4.431356  -0.631762  2.855642
C    -3.636061  -1.419367  0.657761
C    -5.703422  -0.331594  2.360669
C    -4.900392  -1.134988  0.178241
C    -5.908416  -0.584847  1.010518
H    -0.102657  -1.734323  3.166693
H    -0.754059  -2.231407  1.586952
H    -1.913850  -0.606487  5.007726
H    -4.364066  0.002681  4.915736
H    -2.854126  -1.801729  0.006579
H    -6.484242  0.095468  2.988516
H    -5.127913  -1.312686  -0.871891
H    -6.879649  -0.351613  0.574537
O    2.084562  -0.549671  2.200375
H    2.971027  -0.756058  1.836510
Pb    -3.673034  -3.104607  3.823579
