28
Energy: -608821.003603 eV PBE+vdW (tier 2 basis)
N    -0.354666  0.623212  0.496847
C    0.011417  -0.272000  1.578317
C    1.509156  -0.280334  1.795040
O    2.110854  -1.289077  2.324647
H    0.243944  1.449309  0.472400
H    0.683607  -2.242537  -0.192717
H    -0.328278  0.097564  2.577947
C    -0.627406  -1.670100  1.462204
C    -0.348231  -2.463600  0.143707
C    -0.419088  -3.933933  0.406243
C    -1.313761  -2.315699  -1.019638
N    -1.262930  -4.501278  -0.409838
C    -1.847619  -3.583451  -1.312271
C    -1.702250  -1.239074  -1.804542
C    -2.763504  -3.841427  -2.324457
C    -2.627155  -1.467680  -2.833840
C    -3.153963  -2.740931  -3.088059
H    -1.713992  -1.553281  1.567047
H    -0.293982  -2.260821  2.325429
H    0.113511  -4.503410  1.164807
H    -1.476370  -5.501570  -0.405999
H    -1.292940  -0.247864  -1.624035
H    -3.150873  -4.840509  -2.519805
H    -2.943061  -0.631673  -3.456481
H    -3.870096  -2.877294  -3.896548
O    2.190282  0.778760  1.523245
H    -1.315285  0.947969  0.611294
Pb    4.089681  -0.100272  2.442053
