28
Energy: -608820.118041 eV PBE+vdW (tier 2 basis)
N    -1.178023  0.877429  0.725613
C    -0.164780  0.100808  1.428440
C    0.982857  -0.316853  0.503986
O    1.437718  -1.444759  0.439218
H    -0.780838  1.363122  -0.078621
H    -1.578560  1.593657  1.331768
H    0.325185  0.680039  2.235421
C    -0.790091  -1.136003  2.152545
C    -1.263005  -2.187143  1.199050
C    -0.518285  -3.325089  0.819718
C    -2.425222  -2.149900  0.315313
N    -1.166302  -3.982420  -0.223666
C    -2.307850  -3.254449  -0.608658
C    -3.510441  -1.246317  0.163469
C    -3.183241  -3.445684  -1.682100
C    -4.377870  -1.447870  -0.893483
C    -4.208284  -2.518226  -1.808228
H    -1.619237  -0.755441  2.763785
H    -0.042022  -1.560709  2.833451
H    0.455428  -3.652177  1.171739
H    -0.738813  -4.726236  -0.776177
H    -3.612169  -0.395069  0.831254
H    -3.057190  -4.261233  -2.392956
H    -5.204367  -0.755284  -1.046628
H    -4.906012  -2.615419  -2.639609
O    1.434754  0.725126  -0.203927
H    2.198972  0.437821  -0.745523
Pb    -2.711672  -4.252558  1.907359
