28
Energy: -608821.139191 eV PBE+vdW (tier 2 basis)
N    1.151614  0.448686  0.912306
C    0.973963  -0.407310  2.127181
C    2.160853  -0.278146  3.113394
O    3.347476  0.065407  2.584823
H    0.797890  -0.023771  0.073796
H    0.593635  1.304259  0.997838
H    0.092493  -0.049244  2.673844
C    0.760078  -1.881573  1.695177
C    0.752884  -2.927876  2.777549
C    1.473612  -4.135844  2.684097
C    0.041927  -2.996097  3.985343
N    1.230322  -4.911657  3.759634
C    0.351331  -4.248191  4.595968
C    -0.839917  -2.058659  4.712604
C    -0.179377  -4.653705  5.804487
C    -1.403234  -2.572170  5.982785
C    -1.076767  -3.795795  6.497535
H    1.546657  -2.148965  0.971490
H    -0.194377  -1.924032  1.143609
H    2.136850  -4.475887  1.893705
H    1.625956  -5.833171  3.921960
H    -1.651968  -1.654081  4.080779
H    0.080332  -5.623808  6.232282
H    -2.086149  -1.917379  6.524884
H    -1.497272  -4.126515  7.445492
O    2.003475  -0.524549  4.285132
H    -0.239329  -1.155824  4.972180
Pb    3.582043  1.076898  0.731126
