28
Energy: -608821.022147 eV PBE+vdW (tier 2 basis)
N    -0.222813  -1.993359  1.946712
C    0.871521  -1.570443  1.096204
C    1.655937  -0.604073  1.991129
O    2.697810  -1.017354  2.621241
H    -1.073675  -1.443832  1.881790
H    -0.276499  -1.257634  -2.199397
H    1.537029  -2.431345  0.942781
C    0.523550  -0.917481  -0.256239
C    -0.297391  -1.801323  -1.227682
C    0.245430  -3.147428  -1.568966
C    -1.743287  -2.113663  -0.914550
N    -0.711987  -4.036706  -1.525624
C    -1.953788  -3.485603  -1.133966
C    -2.821325  -1.318204  -0.547902
C    -3.182475  -4.121418  -0.994133
C    -4.070146  -1.933253  -0.392609
C    -4.248491  -3.308407  -0.609201
H    1.454934  -0.612411  -0.756427
H    -0.048459  0.005964  -0.088131
H    1.256213  -3.409654  -1.874746
H    -0.587652  -5.019218  -1.781387
H    -2.713719  -0.244702  -0.394260
H    -3.314698  -5.186021  -1.182638
H    -4.928870  -1.328043  -0.105182
H    -5.237054  -3.747148  -0.485035
O    1.234122  0.596775  2.189442
H    -0.405967  -2.989405  1.972117
Pb    2.875745  0.960386  3.756655
