28
Energy: -608821.903394 eV PBE+vdW (tier 2 basis)
N    1.032750  -1.212738  0.286187
C    0.400847  -0.245284  1.211756
C    1.513561  0.330832  2.081981
O    2.470520  -0.379218  2.430770
H    1.635829  -0.738101  -0.394791
H    0.317184  -1.707168  -0.255762
H    -0.118736  0.561671  0.671666
C    -0.639214  -0.989590  2.113647
C    -0.176346  -2.279599  2.755433
C    -0.634784  -3.557179  2.372856
C    0.475677  -2.471911  4.060131
N    -0.294453  -4.473084  3.314576
C    0.386861  -3.869963  4.360161
C    1.052534  -1.607789  5.019880
C    0.880096  -4.423994  5.544293
C    1.528555  -2.159450  6.199718
C    1.451933  -3.546394  6.455301
H    -1.511492  -1.197504  1.478315
H    -0.993343  -0.294576  2.888730
H    -1.236803  -3.838624  1.513160
H    -0.536035  -5.460619  3.271443
H    1.104376  -0.531812  4.862457
H    0.797615  -5.489451  5.755561
H    1.961890  -1.506787  6.956130
H    1.837618  -3.933741  7.397204
O    1.448381  1.555013  2.543486
H    0.707373  2.078776  2.177651
Pb    2.285435  -2.692539  1.946365
