28
Energy: -608821.279969 eV PBE+vdW (tier 2 basis)
N    0.277147  0.186774  -0.040639
C    0.163028  0.012701  1.459197
C    1.523531  -0.425486  1.984955
O    1.641194  -0.729544  3.214393
H    -0.206271  1.027950  -0.377569
H    -0.160552  -0.644343  -0.506930
H    -0.027057  1.002483  1.900739
C    -1.017219  -0.943664  1.813699
C    -1.095564  -2.139872  0.925322
C    -0.595449  -3.415795  1.177689
C    -1.704349  -2.190421  -0.381996
N    -0.853153  -4.223378  0.111756
C    -1.526543  -3.516350  -0.869659
C    -2.432456  -1.268103  -1.169389
C    -2.014233  -3.932173  -2.106490
C    -2.916373  -1.678487  -2.408068
C    -2.704526  -2.988557  -2.872439
H    -1.944717  -0.357091  1.748935
H    -0.898246  -1.217796  2.869349
H    -0.117198  -3.805945  2.070352
H    -0.642534  -5.215462  0.071482
H    -2.668494  -0.266771  -0.801642
H    -1.878710  -4.952655  -2.462861
H    -3.490803  -0.984049  -3.018874
H    -3.103809  -3.281864  -3.841911
O    2.530487  -0.440872  1.194716
H    1.275409  0.233067  -0.308098
Pb    3.952663  -1.030529  3.025149
