28
Energy: -608822.153368 eV PBE+vdW (tier 2 basis)
N    -0.097094  0.521976  0.221119
C    -0.433995  0.373518  1.696223
C    0.861995  0.556138  2.485371
O    0.789530  0.990968  3.671929
H    -0.040275  1.509196  -0.067841
H    -0.788017  0.056381  -0.384658
H    -1.166384  1.143819  1.961846
C    -0.989348  -1.059885  1.969623
C    -0.983833  -1.394409  3.431241
C    -2.005661  -1.154436  4.333328
C    0.118141  -1.896031  4.198783
N    -1.589273  -1.453941  5.602188
C    -0.292110  -1.897520  5.571168
C    1.421539  -2.360099  3.890139
C    0.551587  -2.293030  6.612000
C    2.264406  -2.785566  4.949150
C    1.840603  -2.721937  6.291162
H    -0.372322  -1.785986  1.416111
H    -2.007929  -1.119259  1.560422
H    -3.012804  -0.789504  4.156331
H    -2.170346  -1.389020  6.432351
H    1.724709  -2.537770  2.856176
H    0.212394  -2.284849  7.647946
H    3.232162  -3.231489  4.712755
H    2.509979  -3.056165  7.081807
O    1.932969  0.112409  1.960774
H    0.835844  0.095512  0.066178
Pb    2.830964  -0.063677  4.268066
