28
Energy: -608820.975715 eV PBE+vdW (tier 2 basis)
N    -0.053123  -0.480990  0.065394
C    -0.386048  0.218972  1.298703
C    0.612248  1.376472  1.246810
O    1.842284  1.204830  1.593269
H    -0.858887  -0.800534  -0.464568
H    0.627294  -1.228748  0.182109
H    -1.380836  0.667726  1.173675
C    -0.313076  -0.654435  2.561973
C    -0.794597  -0.005095  3.894434
C    -2.272380  0.209133  3.978014
C    -0.536082  -0.847401  5.125372
N    -2.751955  -0.391510  5.033265
C    -1.758044  -1.059079  5.784597
C    0.617910  -1.404022  5.657424
C    -1.902264  -1.797023  6.953435
C    0.504004  -2.155459  6.835620
C    -0.730451  -2.348708  7.472301
H    0.726378  -0.975665  2.718107
H    -0.900056  -1.563854  2.373411
H    -2.917643  0.769907  3.305715
H    -3.740884  -0.378372  5.295053
H    1.590651  -1.267097  5.186373
H    -2.866204  -1.939863  7.439918
H    1.397927  -2.601349  7.269470
H    -0.776754  -2.939018  8.385807
O    0.257434  2.503855  0.734406
H    -0.312465  0.987360  4.001546
Pb    2.428793  3.184582  0.574251
