28
Energy: -608820.956398 eV PBE+vdW (tier 2 basis)
N    0.895098  1.193921  -0.015048
C    0.433602  0.531670  1.205393
C    1.644609  0.172564  2.047682
O    2.036314  1.002654  2.955671
H    0.988698  2.203187  0.083048
H    1.752972  0.813375  -0.411565
H    -0.105107  1.283029  1.796949
C    -0.569306  -0.620131  0.924468
C    -0.391836  -1.367986  -0.420864
C    0.560881  -2.509791  -0.442987
C    -1.640199  -1.990165  -1.004578
N    -0.011411  -3.560249  -0.972016
C    -1.354345  -3.323126  -1.341743
C    -2.906806  -1.487583  -1.268097
C    -2.262280  -4.195452  -1.931264
C    -3.845463  -2.345787  -1.856090
C    -3.530943  -3.673489  -2.182589
H    -1.559772  -0.151072  0.874054
H    -0.607765  -1.324843  1.765624
H    1.591144  -2.531082  -0.098185
H    0.459470  -4.455919  -1.115731
H    -3.175478  -0.457466  -1.036458
H    -2.005530  -5.222685  -2.186347
H    -4.846028  -1.971903  -2.068733
H    -4.288292  -4.306913  -2.641146
O    2.341694  -0.895886  1.845785
H    -0.004000  -0.602791  -1.133442
Pb    3.787081  -0.291083  3.576208
