28
Energy: -608821.051792 eV PBE+vdW (tier 2 basis)
N    -0.756834  0.489034  0.163819
C    -0.131964  -0.035550  1.385637
C    1.282044  0.518389  1.473624
O    1.475897  1.654794  2.053295
H    -1.144722  1.422364  0.296899
H    -0.123769  0.516083  -0.635880
H    -0.669724  0.402738  2.236684
C    -0.235347  -1.569300  1.528354
C    -0.049219  -2.431171  0.244103
C    -1.244937  -2.415552  -0.657429
C    0.104919  -3.912706  0.520565
N    -1.683449  -3.630207  -0.840010
C    -0.912646  -4.601531  -0.157346
C    1.014921  -4.638241  1.275811
C    -1.080486  -5.980171  -0.130311
C    0.870866  -6.031847  1.325408
C    -0.156024  -6.691451  0.636202
H    -1.220161  -1.798150  1.956520
H    0.502926  -1.915308  2.264449
H    -1.734065  -1.549471  -1.094840
H    -2.496765  -3.859894  -1.416098
H    1.825944  -4.152099  1.816941
H    -1.880995  -6.482449  -0.671707
H    1.574962  -6.618841  1.913400
H    -0.235201  -7.775369  0.698812
O    2.285826  -0.076222  0.921951
H    0.820263  -2.052994  -0.327403
Pb    3.710749  1.610543  1.637518
