28
Energy: -608819.955419 eV PBE+vdW (tier 2 basis)
N    -0.114891  0.557884  0.110153
C    -0.192808  0.099609  1.477698
C    1.068367  0.285679  2.375762
O    1.260109  -0.360461  3.379680
H    -0.291863  1.557402  0.024268
H    0.796364  0.373818  -0.311352
H    -0.974939  0.685379  1.988586
C    -0.584453  -1.410307  1.561015
C    -2.020979  -1.604770  1.218093
C    -3.091890  -1.659821  2.139969
C    -2.630242  -1.603073  -0.107708
N    -4.305767  -1.680497  1.446983
C    -4.063387  -1.589613  0.065850
C    -2.096419  -1.522240  -1.419893
C    -4.955239  -1.459354  -1.001623
C    -2.984681  -1.400859  -2.472222
C    -4.386582  -1.357856  -2.264991
H    -0.368751  -1.747430  2.583977
H    0.067073  -1.970696  0.875741
H    -3.069848  -1.592583  3.225198
H    -5.215496  -1.544010  1.887747
H    -1.021030  -1.511605  -1.577247
H    -6.033544  -1.416765  -0.854156
H    -2.603210  -1.314954  -3.488700
H    -5.041822  -1.238304  -3.127547
O    1.858607  1.259248  1.902463
H    2.611008  1.375057  2.519962
Pb    -3.064626  -4.002938  1.026073
