28
Energy: -608821.042335 eV PBE+vdW (tier 2 basis)
N    0.105458  -0.319213  1.275686
C    0.648064  0.282483  2.531060
C    2.191237  0.444715  2.430637
O    2.659077  0.760327  1.209880
H    0.190185  -1.342040  1.313430
H    -0.893389  -0.117673  1.176179
H    0.263721  1.315474  2.561786
C    0.190618  -0.396774  3.839093
C    0.565874  -1.835733  4.081301
C    1.874811  -2.342991  4.283118
C    -0.301708  -2.908366  4.331137
N    1.819182  -3.648527  4.609282
C    0.495291  -4.048235  4.661758
C    -1.778492  -3.038408  4.392626
C    -0.036071  -5.275797  4.995680
C    -2.279276  -4.393342  4.739663
C    -1.451233  -5.441067  5.022847
H    -0.901189  -0.292127  3.910901
H    0.606356  0.218408  4.651365
H    2.819854  -1.810224  4.233133
H    2.624377  -4.231172  4.822794
H    -2.270242  -2.708917  3.457849
H    0.611070  -6.117509  5.249465
H    -3.360922  -4.526217  4.779000
H    -1.862817  -6.413783  5.286445
O    2.902855  0.345814  3.399443
H    -2.195820  -2.332112  5.141001
Pb    1.538128  0.602008  -0.586556
