28
Energy: -608822.220649 eV PBE+vdW (tier 2 basis)
N    -1.487129  -1.162757  1.989063
C    -0.039913  -1.355782  1.688816
C    0.275368  -2.827081  1.910852
O    -0.353460  -3.529907  2.717997
H    -2.055301  -1.542077  1.222543
H    -1.698423  -0.160822  2.016834
H    0.185804  -1.093045  0.645159
C    0.853509  -0.487271  2.630677
C    0.818319  -0.908295  4.068257
C    1.775553  -1.659043  4.723757
C    -0.243282  -0.693578  5.032018
N    1.365995  -1.941154  6.004188
C    0.133974  -1.395259  6.234133
C    -1.440318  0.090783  5.059328
C    -0.681479  -1.415293  7.377055
C    -2.234742  0.069820  6.209738
C    -1.869991  -0.693667  7.341776
H    0.542011  0.561644  2.506323
H    1.880664  -0.541753  2.247235
H    2.741008  -2.004543  4.366379
H    1.912113  -2.463963  6.683496
H    -1.692521  0.761265  4.236954
H    -0.382169  -1.956275  8.274735
H    -3.137882  0.677916  6.245418
H    -2.516081  -0.685882  8.218169
O    1.298633  -3.256059  1.212955
H    1.488685  -4.200967  1.404839
Pb    -2.019946  -2.404953  4.129304
