28
Energy: -608822.155212 eV PBE+vdW (tier 2 basis)
N    -1.392142  1.206155  2.056480
C    -0.317123  0.215134  2.292578
C    0.207572  -0.221040  0.934424
O    -0.485055  -0.206808  -0.100636
H    -1.954381  1.316120  2.906370
H    -0.993632  2.126627  1.841788
H    0.525849  0.654179  2.844188
C    -0.849083  -1.017845  3.125817
C    -2.323526  -1.245889  2.996542
C    -3.273869  -0.933360  3.951191
C    -3.060990  -1.731660  1.851143
N    -4.536819  -1.173699  3.465154
C    -4.460281  -1.641270  2.181821
C    -2.703601  -2.321117  0.595856
C    -5.468216  -2.017567  1.282835
C    -3.724081  -2.700315  -0.288047
C    -5.084456  -2.526270  0.044710
H    -0.606504  -0.820356  4.177132
H    -0.269655  -1.909105  2.847102
H    -3.134329  -0.571761  4.966101
H    -5.394489  -1.050897  3.996178
H    -1.665410  -2.555072  0.360410
H    -6.521829  -1.941123  1.551708
H    -3.460211  -3.167418  -1.236166
H    -5.849538  -2.833394  -0.666578
O    1.446913  -0.639260  0.960239
H    1.747137  -0.938796  0.073461
Pb    -2.824255  0.301804  0.117201
