28
Energy: -608822.142258 eV PBE+vdW (tier 2 basis)
N    0.255492  -1.638734  0.404659
C    0.098739  -0.236026  0.962551
C    1.338758  0.028813  1.815672
O    1.939902  -0.984402  2.296556
H    0.754140  -2.194972  1.128134
H    0.840964  -1.646770  -0.442781
H    0.007365  0.458674  0.120241
C    -1.142688  -0.132422  1.905750
C    -0.931657  -0.718935  3.273814
C    -1.167571  -2.021539  3.669036
C    -0.369694  -0.054981  4.426620
N    -0.754171  -2.211392  4.965929
C    -0.258806  -1.038594  5.468646
C    -0.032351  1.293532  4.738660
C    0.226993  -0.728967  6.748893
C    0.424929  1.599293  6.034321
C    0.568982  0.594568  7.017673
H    -2.008335  -0.590631  1.403227
H    -1.378052  0.937790  1.976506
H    -1.635615  -2.837801  3.126155
H    -0.867697  -3.074079  5.489775
H    -0.193171  2.091919  4.013549
H    0.301113  -1.491896  7.523880
H    0.641244  2.636383  6.289967
H    0.925087  0.865624  8.010203
O    1.579804  1.220311  2.164310
H    -0.645734  -2.075135  0.169060
Pb    2.480027  0.458368  4.246992
