35
Energy: -21190.3192125 eV PBE+vdW (tier 2 basis)
C    0.154141  2.022797  -0.101494
C    0.449863  1.046896  1.017898
O    1.583266  0.599792  1.206788
H    -0.859306  1.938913  -0.509825
H    0.281375  3.048909  0.273469
H    0.895955  1.862885  -0.889600
N    -0.573050  0.666973  1.852580
C    -1.963211  1.132016  1.960383
C    -2.801509  0.671874  0.744100
O    -3.224286  1.454856  -0.106364
H    -0.255866  0.022988  2.574383
H    -2.357303  0.604728  2.841106
C    -2.153248  2.635666  2.209682
C    -1.253581  3.277904  3.272307
C    -1.335534  2.721314  4.704281
N    -0.535121  1.521400  4.921966
C    -1.084875  0.272485  5.081467
N    -0.128079  -0.753494  4.986595
N    -2.360869  0.107010  5.214465
H    -3.207486  2.774396  2.494539
H    -2.038211  3.177788  1.262190
H    -1.520398  4.344861  3.319827
H    -0.200752  3.257503  2.943675
H    -2.366849  2.462873  4.976355
H    -0.993236  3.495997  5.407728
H    0.399276  1.544152  4.526771
H    -0.445536  -1.643976  5.354557
H    0.803315  -0.522565  5.325419
H    -2.589247  -0.871452  5.401398
N    -3.053518  -0.668238  0.655887
C    -2.587324  -1.735854  1.524040
H    -3.544625  -0.926155  -0.194484
H    -3.223824  -2.614808  1.370798
H    -2.670721  -1.448510  2.580408
H    -1.543184  -2.019428  1.320985
