35
Energy: -21190.4407252 eV PBE+vdW (tier 2 basis)
C    -0.254130  -0.866979  2.767392
C    -1.011977  -0.946420  4.073207
O    -0.857141  -1.876385  4.865067
H    -0.099604  0.157790  2.409491
H    -0.783214  -1.439756  1.990657
H    0.715817  -1.351874  2.916766
N    -1.867601  0.091512  4.390026
C    -2.585187  0.944967  3.441883
C    -2.268131  2.448165  3.583236
O    -2.913541  3.277675  2.944212
H    -2.368857  -0.106009  5.255216
H    -2.223439  0.690263  2.436707
C    -4.115284  0.697184  3.503253
C    -4.769597  0.216945  2.198487
C    -4.074444  -0.944803  1.479922
N    -3.699403  -2.016679  2.381443
C    -2.876340  -3.058165  1.968442
N    -2.589902  -3.948697  3.001875
N    -2.372952  -3.237533  0.792180
H    -4.614402  1.626167  3.806735
H    -4.301060  -0.039553  4.298113
H    -4.827962  1.056194  1.490451
H    -5.811113  -0.061522  2.425060
H    -3.151580  -0.586793  0.995079
H    -4.730151  -1.292406  0.658738
H    -4.356281  -2.255222  3.117602
H    -1.939787  -4.661906  2.683455
H    -2.262030  -3.503221  3.859342
H    -2.794920  -2.609335  0.103885
N    -1.234308  2.745665  4.410793
C    -0.760336  4.097968  4.624745
H    -0.791056  1.962186  4.880712
H    -0.824883  4.377343  5.685377
H    -1.397346  4.769666  4.038921
H    0.280671  4.212592  4.291535
