35
Energy: -21190.4852541 eV PBE+vdW (tier 2 basis)
C    -4.152326  0.669840  0.030008
C    -3.011541  0.164863  0.888092
O    -2.278737  -0.761153  0.520863
H    -4.710968  1.499299  0.480515
H    -4.840940  -0.160587  -0.169267
H    -3.746462  0.996227  -0.935608
N    -2.837639  0.796925  2.083003
C    -1.770165  0.443111  3.020861
C    -2.217329  -0.745557  3.915228
O    -2.552840  -0.599753  5.088806
H    -3.528533  1.474440  2.386101
H    -0.930047  0.100877  2.397058
C    -1.342604  1.646097  3.854571
C    -0.745728  2.788546  3.032351
C    -0.222403  3.943023  3.899259
N    0.866741  3.563908  4.795361
C    2.192886  3.906825  4.591558
N    2.549491  4.041870  3.243881
N    2.950387  4.101094  5.617657
H    -0.602725  1.296295  4.587876
H    -2.199624  2.000170  4.450876
H    -1.489569  3.196576  2.329385
H    0.075222  2.397527  2.406986
H    -1.047372  4.333073  4.515014
H    0.107692  4.770045  3.253917
H    0.656485  3.541522  5.786944
H    2.136101  3.367942  2.604933
H    3.547230  4.144510  3.096887
H    3.930407  4.208877  5.345451
N    -2.201885  -1.934428  3.254511
C    -2.682159  -3.164782  3.851984
H    -2.017725  -1.896815  2.249775
H    -2.783774  -3.002189  4.930138
H    -1.970871  -3.982113  3.675038
H    -3.662676  -3.458104  3.446988
