35
Energy: -21190.2437159 eV PBE+vdW (tier 2 basis)
C    -0.115621  -0.062834  0.453073
C    -0.539731  -0.613390  1.800793
O    0.215769  -1.331209  2.465357
H    0.955533  -0.246152  0.335186
H    -0.313666  1.012551  0.352472
H    -0.647112  -0.576091  -0.361621
N    -1.778704  -0.279585  2.282249
C    -2.934327  0.113922  1.479057
C    -3.814495  1.173354  2.180404
O    -5.042222  1.080067  2.176067
H    -2.024594  -0.883726  3.075917
H    -2.550714  0.605641  0.571033
C    -3.750055  -1.114998  1.009820
C    -4.664833  -1.874843  2.004570
C    -4.239434  -2.038053  3.468811
N    -2.895516  -2.573121  3.621376
C    -2.285041  -2.706375  4.876773
N    -0.981041  -3.171543  4.756557
N    -2.796007  -2.425103  6.025599
H    -3.010169  -1.809263  0.582539
H    -4.388190  -0.799452  0.172704
H    -4.842022  -2.873982  1.574344
H    -5.638371  -1.372077  2.032024
H    -4.996932  -2.670715  3.968445
H    -4.275316  -1.061569  3.977663
H    -2.609659  -3.275622  2.944598
H    -0.510233  -3.180372  5.656213
H    -0.433728  -2.707434  4.025187
H    -3.798030  -2.232661  5.952722
N    -3.198109  2.232423  2.782805
C    -1.799413  2.636410  2.777134
H    -3.866494  2.869154  3.205211
H    -1.185092  2.030877  3.455072
H    -1.748970  3.683530  3.096050
H    -1.364174  2.579824  1.770317
