35
Energy: -21190.2034864 eV PBE+vdW (tier 2 basis)
C    0.860376  -0.394943  -0.199526
C    0.543442  0.188386  1.165242
O    1.358310  0.849171  1.802889
H    1.626976  -1.171263  -0.077683
H    1.291669  0.392425  -0.828401
H    -0.006074  -0.832437  -0.710809
N    -0.720825  -0.062896  1.631059
C    -1.187102  0.292302  2.970339
C    -0.698801  1.686267  3.435057
O    -0.199786  1.857034  4.546005
H    -1.319468  -0.664693  1.078057
H    -2.280661  0.413516  2.875863
C    -0.963483  -0.826997  4.015800
C    0.390154  -1.551987  4.008341
C    1.519908  -0.880833  4.794645
N    1.239602  -0.905975  6.229229
C    1.718713  0.035300  7.144569
N    1.859520  1.313765  6.639005
N    2.008544  -0.203457  8.383969
H    -1.753988  -1.572650  3.840383
H    -1.146323  -0.402546  5.013021
H    0.730410  -1.721179  2.975705
H    0.230724  -2.559661  4.426655
H    1.646993  0.155428  4.471296
H    2.470056  -1.398847  4.565861
H    1.241621  -1.840169  6.627908
H    2.037138  1.984514  7.378218
H    1.162325  1.610715  5.956343
H    1.980481  -1.208101  8.580218
N    -0.989908  2.759328  2.643786
C    -1.556253  2.810999  1.309488
H    -0.608836  3.621512  3.020887
H    -1.965932  3.814741  1.146071
H    -2.381884  2.097501  1.201255
H    -0.812995  2.606987  0.523067
