35
Energy: -21189.9986582 eV PBE+vdW (tier 2 basis)
C    -0.093034  0.276100  -0.259750
C    -0.189793  0.687241  1.195708
O    0.367269  1.710464  1.594415
H    0.624516  0.950136  -0.735004
H    0.240096  -0.759765  -0.394576
H    -1.062310  0.382233  -0.763681
N    -0.915461  -0.060578  2.101213
C    -1.632875  -1.339643  2.107978
C    -0.931403  -2.468146  2.906798
O    -1.636954  -3.209340  3.599126
H    -0.863004  0.380299  3.016976
H    -2.522617  -1.165052  2.731990
C    -2.174663  -1.802988  0.741813
C    -3.150196  -2.994485  0.813024
C    -2.526792  -4.380173  0.579874
N    -1.940576  -4.551356  -0.741818
C    -0.599217  -4.349131  -1.025100
N    -0.343561  -4.301086  -2.400800
N    0.383136  -4.189893  -0.203049
H    -1.359231  -2.044847  0.050355
H    -2.700241  -0.937859  0.314223
H    -3.929849  -2.846131  0.048925
H    -3.669543  -3.012169  1.782251
H    -3.304512  -5.146493  0.715929
H    -1.761806  -4.600750  1.334262
H    -2.567491  -4.357989  -1.516900
H    0.656102  -4.341709  -2.578100
H    -0.851728  -4.986545  -2.953554
H    0.058146  -4.161009  0.765460
N    0.419797  -2.647220  2.867834
C    1.471510  -1.985177  2.102222
H    0.705075  -3.406740  3.479136
H    2.404667  -2.525191  2.293087
H    1.610494  -0.939101  2.400365
H    1.286060  -2.048628  1.023332
