35
Energy: -21190.1582567 eV PBE+vdW (tier 2 basis)
C    -0.247906  -0.544252  -0.118658
C    -0.613718  -0.760806  1.336872
O    -0.558660  -1.879169  1.850796
H    0.751642  -0.957695  -0.297597
H    -0.263070  0.507479  -0.430309
H    -0.953009  -1.108960  -0.741977
N    -0.994373  0.361273  2.016338
C    -1.554465  0.351505  3.372065
C    -2.815259  1.235863  3.429639
O    -3.904417  0.745015  3.703463
H    -1.076412  1.213095  1.474640
H    -1.932512  -0.660433  3.554467
C    -0.519067  0.684577  4.472443
C    0.415950  -0.482338  4.830176
C    -0.125842  -1.431832  5.908771
N    -1.447641  -2.011507  5.639711
C    -1.591964  -3.333159  5.212466
N    -0.697961  -3.696475  4.211154
N    -2.487523  -4.066033  5.786922
H    -1.067702  1.007335  5.372825
H    0.083008  1.545726  4.152427
H    1.364677  -0.075409  5.213954
H    0.674204  -1.048147  3.924378
H    -0.209128  -0.871844  6.852859
H    0.610415  -2.233444  6.076328
H    -2.137354  -1.831658  6.362554
H    -0.576719  -3.013818  3.457544
H    -0.851428  -4.633094  3.854201
H    -2.610814  -4.951285  5.287137
N    -2.719660  2.577402  3.122846
C    -1.558761  3.455610  3.098834
H    -3.621954  3.035177  3.224673
H    -1.809560  4.353010  2.520748
H    -0.699508  2.983233  2.609763
H    -1.239632  3.769623  4.105475
