35
Energy: -21190.3737956 eV PBE+vdW (tier 2 basis)
C    0.431731  -0.857090  -0.188889
C    0.283782  -0.079479  1.104250
O    1.261896  0.340688  1.715313
H    1.334828  -1.470947  -0.109051
H    0.589143  -0.144506  -1.010229
H    -0.423063  -1.493185  -0.441740
N    -0.986352  0.137168  1.606548
C    -2.295949  -0.085456  0.984686
C    -2.657991  -1.583261  0.847859
O    -3.507754  -1.975402  0.041003
H    -0.969092  0.740780  2.424418
H    -3.010219  0.276135  1.740117
C    -2.496242  0.755828  -0.297717
C    -3.911572  0.894002  -0.886399
C    -5.028730  1.306864  0.081300
N    -5.494394  0.187746  0.906073
C    -5.434572  0.149136  2.287610
N    -5.467663  1.399598  2.914936
N    -5.322607  -0.909034  3.023946
H    -1.838633  0.371527  -1.089823
H    -2.120277  1.759993  -0.046965
H    -4.201357  -0.041939  -1.382424
H    -3.856565  1.657832  -1.677691
H    -5.869698  1.711216  -0.506505
H    -4.684483  2.114712  0.743505
H    -5.315347  -0.721960  0.484024
H    -5.586823  1.282406  3.917213
H    -6.132496  2.062141  2.524859
H    -5.183436  -1.741262  2.443925
N    -2.031312  -2.403410  1.724957
C    -2.357472  -3.808651  1.861562
H    -1.372799  -1.973495  2.365962
H    -1.444611  -4.417780  1.874168
H    -2.973258  -4.097705  1.003575
H    -2.925465  -3.998174  2.784234
