35
Energy: -21189.9167488 eV PBE+vdW (tier 2 basis)
C    0.740717  0.269131  0.249037
C    0.444053  0.315834  1.733589
O    1.274316  0.696614  2.558477
H    1.751277  -0.125973  0.099731
H    0.723541  1.296654  -0.139216
H    0.025216  -0.333764  -0.323491
N    -0.812380  -0.085555  2.098074
C    -1.331951  0.107138  3.453616
C    -1.049933  1.574128  3.899741
O    -1.571687  2.457790  3.220666
H    -1.489625  -0.225960  1.358876
H    -2.422850  0.160937  3.328530
C    -1.080652  -1.098737  4.388249
C    0.270164  -1.810366  4.287603
C    0.425761  -2.886225  5.357715
N    1.701083  -3.581441  5.186269
C    2.202789  -4.490567  6.114233
N    1.223832  -5.162182  6.844517
N    3.445064  -4.749202  6.346637
H    -1.866376  -1.838862  4.165167
H    -1.277061  -0.776014  5.422324
H    1.095456  -1.090925  4.367180
H    0.364959  -2.274597  3.294617
H    -0.404163  -3.606965  5.270152
H    0.345265  -2.434679  6.364463
H    2.429920  -3.002336  4.780707
H    1.629264  -5.934893  7.363886
H    0.388211  -5.426182  6.331603
H    4.061467  -4.103985  5.845175
N    -0.403546  1.892126  5.063873
C    0.681347  1.196526  5.747131
H    -0.398869  2.903279  5.171825
H    0.331065  0.309216  6.288905
H    1.100259  1.884061  6.489562
H    1.475594  0.909291  5.045558
