35
Energy: -21190.3715691 eV PBE+vdW (tier 2 basis)
C    0.268885  1.244869  0.080881
C    0.352650  0.559899  1.430013
O    1.369352  0.562491  2.116411
H    1.212944  1.765880  -0.095978
H    -0.561262  1.962857  0.033917
H    0.109250  0.512070  -0.723167
N    -0.789891  -0.076221  1.876132
C    -2.045937  -0.263562  1.160425
C    -2.937274  0.997396  1.110390
O    -3.762917  1.143799  0.208899
H    -0.648831  -0.602272  2.735354
H    -1.842201  -0.504840  0.106914
C    -2.797371  -1.446964  1.812150
C    -4.178743  -1.783195  1.243663
C    -4.171624  -2.191452  -0.236435
N    -5.484480  -2.585615  -0.747702
C    -6.177272  -3.699529  -0.275432
N    -5.358259  -4.777676  0.067023
N    -7.454285  -3.817594  -0.141587
H    -2.901178  -1.230121  2.888190
H    -2.140955  -2.328968  1.731861
H    -4.860178  -0.929638  1.370211
H    -4.593344  -2.614410  1.832450
H    -3.455941  -3.012401  -0.395807
H    -3.834203  -1.352585  -0.858795
H    -6.101090  -1.797880  -0.921727
H    -5.920139  -5.606015  0.240396
H    -4.589982  -4.957964  -0.573194
H    -7.927415  -2.921326  -0.286672
N    -2.757714  1.873160  2.133027
C    -3.512978  3.104004  2.260705
H    -1.988817  1.684819  2.768118
H    -2.860542  3.983950  2.170939
H    -4.035067  3.147623  3.226124
H    -4.251989  3.125723  1.452672
