35
Energy: -21190.0844796 eV PBE+vdW (tier 2 basis)
C    0.135109  -1.416507  0.328229
C    -0.274881  -0.385527  1.367932
O    0.066588  0.791498  1.268168
H    1.230897  -1.459315  0.294647
H    -0.207096  -1.074760  -0.656433
H    -0.253374  -2.425998  0.511475
N    -1.052302  -0.877929  2.381101
C    -1.541124  -0.234373  3.608487
C    -3.049103  0.113658  3.642827
O    -3.634852  0.011531  4.722499
H    -1.262883  -1.867238  2.325221
H    -1.488916  -1.029968  4.364109
C    -0.695413  0.929973  4.178954
C    -1.030040  2.350307  3.715505
C    -0.316771  3.418142  4.545307
N    -0.784495  3.411883  5.922071
C    -0.166184  4.172782  6.905167
N    -0.862623  4.138330  8.118976
N    0.914561  4.869135  6.813174
H    0.364494  0.714150  3.984785
H    -0.831868  0.884409  5.268114
H    -2.117321  2.525289  3.781109
H    -0.745976  2.474881  2.663951
H    -0.457591  4.406541  4.068501
H    0.766744  3.219380  4.550472
H    -1.791224  3.320697  6.031206
H    -1.194553  3.216961  8.391999
H    -0.322215  4.584821  8.854234
H    1.242912  4.926916  5.846823
N    -3.713824  0.518948  2.523592
C    -3.229714  0.872588  1.196967
H    -4.698221  0.679995  2.716529
H    -2.224378  1.304239  1.232995
H    -3.901934  1.629176  0.775355
H    -3.215322  0.008377  0.515291
