35
Energy: -21190.3768043 eV PBE+vdW (tier 2 basis)
C    0.142024  -1.344242  0.621158
C    0.072048  -0.598133  1.936571
O    1.059380  -0.096883  2.467632
H    0.440612  -2.380557  0.848831
H    0.915839  -0.891530  -0.006737
H    -0.811334  -1.364305  0.077323
N    -1.189629  -0.534094  2.495054
C    -1.507324  -0.155084  3.878469
C    -0.836197  1.156986  4.350742
O    -0.509711  1.309873  5.524095
H    -1.908344  -1.066521  2.016637
H    -2.582893  0.091058  3.861676
C    -1.336904  -1.308816  4.881790
C    0.093917  -1.824358  5.074375
C    0.167120  -3.303692  5.489661
N    -0.518591  -4.245033  4.608259
C    -0.158925  -4.450525  3.287638
N    -1.122417  -5.184172  2.575614
N    0.899157  -4.052294  2.667089
H    -1.978233  -2.125040  4.510860
H    -1.758622  -0.984139  5.843548
H    0.605824  -1.220050  5.835107
H    0.668238  -1.678299  4.153337
H    -0.270880  -3.445462  6.488201
H    1.221890  -3.607685  5.572752
H    -1.505260  -4.377680  4.799047
H    -0.742232  -5.475838  1.678983
H    -1.506660  -5.976104  3.085784
H    1.473287  -3.435958  3.245115
N    -0.784058  2.146875  3.415793
C    -0.074647  3.386466  3.672557
H    -0.896447  1.859405  2.450146
H    -0.513937  4.196985  3.078637
H    0.996357  3.300393  3.430995
H    -0.169863  3.625492  4.736615
