35
Energy: -21190.0946649 eV PBE+vdW (tier 2 basis)
C    -0.474028  0.214623  0.982148
C    -0.927581  -0.463891  2.264914
O    -0.127653  -0.769179  3.147202
H    0.264299  -0.429692  0.489065
H    0.034559  1.150982  1.243937
H    -1.283288  0.433935  0.274487
N    -2.276966  -0.675243  2.353101
C    -3.040656  -1.386496  3.384540
C    -3.801975  -0.522706  4.416739
O    -4.809312  -1.027031  4.926909
H    -2.827285  -0.359724  1.563640
H    -3.868330  -1.853946  2.833445
C    -2.283921  -2.541762  4.095611
C    -1.604468  -2.202009  5.436469
C    -2.398990  -2.693247  6.661722
N    -1.951195  -2.115764  7.921299
C    -2.383525  -0.854149  8.326319
N    -1.556238  -0.299010  9.313741
N    -3.400311  -0.182781  7.910321
H    -1.556097  -2.947927  3.384281
H    -3.027609  -3.334125  4.265161
H    -1.449650  -1.120547  5.529179
H    -0.595662  -2.637539  5.456286
H    -2.330236  -3.789070  6.742300
H    -3.466505  -2.466515  6.541524
H    -0.971914  -2.290670  8.131271
H    -1.234303  -0.962300  10.014158
H    -2.009905  0.503069  9.742237
H    -3.891905  -0.659215  7.149849
N    -3.401090  0.728339  4.763409
C    -2.146461  1.433257  4.533114
H    -3.983762  1.099787  5.510310
H    -1.984434  2.107593  5.381134
H    -1.290436  0.751275  4.483455
H    -2.174650  2.033502  3.611617
