35
Energy: -21189.92273 eV PBE+vdW (tier 2 basis)
C    0.466586  1.119194  1.496911
C    0.099271  -0.027239  2.407782
O    0.918064  -0.882826  2.739403
H    1.507343  0.976393  1.194327
H    0.378703  2.096315  1.990511
H    -0.175135  1.124190  0.607907
N    -1.183562  -0.115905  2.924642
C    -2.433090  0.582131  2.653906
C    -3.011441  0.239708  1.258841
O    -2.308282  -0.102098  0.314734
H    -1.279207  -0.975120  3.457526
H    -3.124845  0.154298  3.393160
C    -2.407411  2.120276  2.926843
C    -2.394613  3.056308  1.716071
C    -2.230795  4.520672  2.147056
N    -1.984900  5.443309  1.050449
C    -0.716555  5.530573  0.500887
N    -0.629152  6.416487  -0.578185
N    0.268954  4.896189  1.040426
H    -1.521056  2.313004  3.547663
H    -3.272193  2.369430  3.561464
H    -3.322054  2.947000  1.130296
H    -1.565190  2.806141  1.044897
H    -1.368811  4.605806  2.821713
H    -3.120076  4.870109  2.694298
H    -2.761588  5.608840  0.420395
H    0.105513  6.202418  -1.242193
H    -1.495930  6.693886  -1.027821
H    1.157332  5.153662  0.605639
N    -4.374394  0.326175  1.125257
C    -5.359710  0.790088  2.085397
H    -4.686730  0.147076  0.175581
H    -5.185514  0.357437  3.079193
H    -6.351925  0.460582  1.757729
H    -5.380092  1.887537  2.185295
