35
Energy: -21190.1432239 eV PBE+vdW (tier 2 basis)
C    -1.273247  -0.129303  -0.939766
C    -0.524220  0.238771  0.323318
O    0.546679  0.840806  0.267748
H    -1.120572  0.671683  -1.670072
H    -2.343382  -0.311987  -0.804296
H    -0.834315  -1.054407  -1.335653
N    -1.028487  -0.135102  1.547484
C    -2.268372  -0.782571  1.958092
C    -2.632852  -2.001167  1.066190
O    -1.756916  -2.775584  0.688973
H    -0.385305  0.110291  2.294694
H    -2.012224  -1.297190  2.900230
C    -3.363953  0.238668  2.360251
C    -3.805132  1.312397  1.352919
C    -4.750075  0.886786  0.225359
N    -5.915801  0.178392  0.756504
C    -6.963966  -0.261607  -0.061917
N    -6.572067  -0.752466  -1.303701
N    -8.149735  -0.273205  0.437969
H    -2.954629  0.776468  3.228730
H    -4.235199  -0.306791  2.755219
H    -2.920492  1.783324  0.900070
H    -4.301435  2.113784  1.923629
H    -4.218228  0.213817  -0.462885
H    -5.035943  1.784743  -0.352793
H    -6.326373  0.613040  1.581870
H    -7.316563  -0.836667  -1.984817
H    -5.703360  -0.410932  -1.700033
H    -8.828068  -0.701840  -0.196379
N    -3.953221  -2.200409  0.819564
C    -4.416431  -3.371049  0.094259
H    -4.651852  -1.514253  1.106828
H    -5.390103  -3.145203  -0.353079
H    -4.514695  -4.245858  0.754252
H    -3.696098  -3.624578  -0.692525
