35
Energy: -21190.5115596 eV PBE+vdW (tier 2 basis)
C    -1.557937  -0.152269  0.171883
C    -1.158678  -0.420595  1.609086
O    -0.476384  -1.395915  1.926872
H    -0.649576  -0.099443  -0.440491
H    -2.134933  0.770557  0.037097
H    -2.149811  -1.000987  -0.192896
N    -1.594927  0.500544  2.521048
C    -1.336183  0.382084  3.949403
C    -2.576825  -0.240504  4.630202
O    -3.618479  0.413559  4.768437
H    -2.231524  1.231513  2.222289
H    -0.468440  -0.282023  4.041452
C    -1.032908  1.753153  4.559463
C    -0.720796  1.700808  6.064456
C    -1.257004  2.919950  6.832323
N    -2.706744  3.012272  6.781726
C    -3.375752  3.837015  5.875679
N    -4.587830  3.291713  5.464489
N    -3.015808  5.007530  5.464203
H    -1.904444  2.399874  4.385927
H    -0.193649  2.197762  4.007092
H    0.363235  1.608647  6.232154
H    -1.169355  0.799335  6.515685
H    -0.842472  3.847208  6.412465
H    -0.921831  2.874155  7.880256
H    -3.189850  2.135600  6.958569
H    -5.057277  3.895682  4.797409
H    -4.533199  2.316734  5.165402
H    -2.194260  5.343326  5.973634
N    -2.491976  -1.526328  5.051736
C    -1.362631  -2.447050  4.961540
H    -3.348077  -1.863114  5.483587
H    -0.626448  -2.274752  5.761374
H    -0.870325  -2.367302  3.984332
H    -1.745056  -3.468139  5.066819
