35
Energy: -21190.3764663 eV PBE+vdW (tier 2 basis)
C    0.421254  -0.933381  0.665140
C    0.106503  -0.020501  1.834916
O    0.942963  0.760617  2.278950
H    1.444598  -1.302245  0.794947
H    0.405895  -0.337369  -0.257528
H    -0.260951  -1.780927  0.543812
N    -1.142684  -0.099643  2.422959
C    -2.349889  -0.804485  1.991571
C    -2.314528  -2.335531  2.188486
O    -3.198729  -3.046742  1.699618
H    -1.253694  0.593529  3.157683
H    -3.129167  -0.493398  2.706472
C    -2.868758  -0.408098  0.590325
C    -3.762735  0.837995  0.581695
C    -5.202229  0.592953  1.051728
N    -5.325165  0.272633  2.482027
C    -6.092382  -0.801613  2.961454
N    -6.024806  -1.947681  2.184660
N    -6.809373  -0.790154  4.036305
H    -3.426113  -1.263441  0.184182
H    -2.013361  -0.250428  -0.078582
H    -3.819017  1.223304  -0.448203
H    -3.302651  1.645995  1.175661
H    -5.637198  -0.244389  0.490647
H    -5.814782  1.480599  0.820002
H    -5.438570  1.091073  3.071990
H    -5.097623  -2.243704  1.866301
H    -6.537129  -2.704768  2.626596
H    -6.896741  0.157840  4.414383
N    -1.323107  -2.808833  2.978949
C    -1.206034  -4.204390  3.354185
H    -0.667401  -2.128573  3.348612
H    -0.233688  -4.613298  3.047738
H    -2.003730  -4.755734  2.845871
H    -1.319351  -4.333185  4.439486
