35
Energy: -21190.5885422 eV PBE+vdW (tier 2 basis)
C    0.169298  -1.047423  0.178839
C    0.013656  -0.904277  1.678189
O    0.834069  -1.380437  2.469551
H    1.141951  -0.633528  -0.114165
H    -0.619572  -0.548144  -0.396792
H    0.177944  -2.114647  -0.075561
N    -1.082199  -0.208982  2.101903
C    -1.365651  -0.001655  3.520019
C    -2.079698  -1.246831  4.109051
O    -3.307757  -1.314775  4.212575
H    -1.787709  0.064612  1.427138
H    -0.386132  0.099000  4.010277
C    -2.189212  1.263508  3.749002
C    -2.397865  1.552305  5.252196
C    -3.879370  1.552485  5.670667
N    -4.096645  1.553108  7.107146
C    -3.938637  0.386540  7.857302
N    -3.906091  0.653132  9.235794
N    -3.822330  -0.825270  7.444949
H    -3.167169  1.140945  3.256324
H    -1.678461  2.100264  3.253070
H    -1.941672  2.516338  5.521253
H    -1.876320  0.793625  5.855298
H    -4.371627  0.666514  5.247890
H    -4.392877  2.429419  5.247881
H    -3.781122  2.390618  7.588594
H    -3.959386  -0.216969  9.758489
H    -4.610451  1.317609  9.547706
H    -3.762215  -0.895541  6.425424
N    -1.235576  -2.231964  4.490422
C    -1.722156  -3.492083  5.025768
H    -0.264019  -2.144600  4.192224
H    -0.870211  -4.065988  5.404216
H    -2.246355  -4.086401  4.262423
H    -2.420670  -3.301554  5.849771
