35
Energy: -21190.1587623 eV PBE+vdW (tier 2 basis)
C    -0.250695  -0.101211  1.383943
C    -0.464943  0.554793  2.726911
O    0.000843  1.660284  2.992552
H    0.630242  0.365677  0.933827
H    -1.113506  0.095156  0.724881
H    -0.087885  -1.180426  1.462032
N    -1.292829  -0.046078  3.674111
C    -1.768962  -1.417089  3.813625
C    -0.612976  -2.432488  4.028145
O    0.522042  -2.259078  3.602490
H    -1.253112  0.487114  4.538777
H    -2.348056  -1.413679  4.752831
C    -2.734739  -1.879986  2.694598
C    -4.200260  -1.469250  2.898579
C    -4.490012  0.041135  2.976968
N    -3.973724  0.841566  1.868588
C    -4.262798  0.555842  0.541858
N    -5.597749  0.207180  0.314281
N    -3.315665  0.605809  -0.333777
H    -2.696742  -2.977481  2.631135
H    -2.372545  -1.517764  1.725111
H    -4.591401  -1.932726  3.821183
H    -4.789593  -1.892510  2.071367
H    -4.057561  0.474415  3.888392
H    -5.578037  0.182781  3.067673
H    -2.994913  1.094898  1.970010
H    -5.854764  0.170517  -0.665603
H    -6.281070  0.707732  0.876117
H    -3.677470  0.531706  -1.288253
N    -0.986382  -3.544379  4.732998
C    -0.086834  -4.655634  4.980816
H    -1.941389  -3.610840  5.064149
H    -0.421487  -5.568751  4.467677
H    -0.000936  -4.862351  6.056227
H    0.897378  -4.372008  4.593371
