35
Energy: -21189.9935499 eV PBE+vdW (tier 2 basis)
C    -0.877558  -0.136439  -0.179509
C    -0.664254  -0.514704  1.276311
O    0.209824  -1.303284  1.618743
H    -0.635494  -0.998168  -0.809248
H    -0.179103  0.674712  -0.428797
H    -1.896873  0.204995  -0.401240
N    -1.547038  0.088519  2.145321
C    -1.416643  0.199692  3.593102
C    -0.503287  1.405587  3.945328
O    0.258482  1.900308  3.121698
H    -2.113835  0.817914  1.727051
H    -2.430484  0.445702  3.946753
C    -0.997986  -1.116277  4.304887
C    0.489449  -1.264857  4.633522
C    0.825551  -2.683489  5.081463
N    2.255026  -2.785499  5.381605
C    2.854617  -3.960419  5.830657
N    2.035169  -4.758684  6.628623
N    4.059096  -4.352743  5.586480
H    -1.317664  -1.946230  3.661399
H    -1.585448  -1.203105  5.231442
H    0.789521  -0.559662  5.424480
H    1.074328  -1.025681  3.734890
H    0.522047  -3.399710  4.295732
H    0.246640  -2.936512  5.982887
H    2.833738  -2.306726  4.696776
H    2.578229  -5.492564  7.073597
H    1.437024  -4.261932  7.281946
H    4.508758  -3.758551  4.884590
N    -0.609627  1.919115  5.210387
C    -1.397990  1.438995  6.331347
H    0.056877  2.664835  5.387222
H    -1.522154  2.256794  7.050137
H    -0.928037  0.591005  6.854657
H    -2.401550  1.133903  6.008939
