35
Energy: -21190.305144 eV PBE+vdW (tier 2 basis)
C    -0.376666  1.879866  0.013584
C    0.078849  1.384064  1.371942
O    1.104363  1.801402  1.902255
H    -1.461836  1.869533  -0.132471
H    0.067438  1.243739  -0.765368
H    0.006860  2.895500  -0.119956
N    -0.653546  0.381223  1.982323
C    -2.021874  -0.064948  1.693879
C    -2.151316  -0.693654  0.280879
O    -3.160561  -0.554229  -0.404871
H    -0.299478  0.177811  2.913607
H    -2.189801  -0.904911  2.388688
C    -3.116991  0.980413  1.976730
C    -4.452734  0.354730  2.384952
C    -5.561108  1.383645  2.648596
N    -5.273067  2.381725  3.672135
C    -5.261626  2.049370  5.012569
N    -4.842585  3.121765  5.820479
N    -5.581152  0.862506  5.404901
H    -3.259526  1.617788  1.090839
H    -2.744978  1.622173  2.789457
H    -4.319747  -0.250368  3.294294
H    -4.802206  -0.315805  1.587042
H    -6.470393  0.853924  2.959781
H    -5.795016  1.931208  1.723230
H    -4.643217  3.131000  3.409055
H    -4.974291  2.954291  6.812325
H    -5.210373  4.029485  5.545082
H    -5.644689  0.817373  6.424513
N    -1.078303  -1.443043  -0.094229
C    -0.998948  -2.114725  -1.375736
H    -0.261498  -1.409279  0.506542
H    -1.983626  -2.045783  -1.849896
H    -0.734218  -3.172646  -1.247026
H    -0.256008  -1.642352  -2.035617
