35
Energy: -21190.2174605 eV PBE+vdW (tier 2 basis)
C    -1.271459  -0.704230  -0.277342
C    -0.669825  -0.599712  1.115281
O    0.548485  -0.574104  1.284628
H    -0.881160  -1.610104  -0.757152
H    -0.928516  0.152819  -0.870246
H    -2.367823  -0.735483  -0.296576
N    -1.590766  -0.534254  2.126548
C    -1.401199  -0.472197  3.583274
C    -1.715779  0.924825  4.173220
O    -2.630318  1.001938  5.011078
H    -2.561670  -0.511189  1.837383
H    -2.225346  -1.070363  3.997798
C    -0.098800  -1.120273  4.095762
C    -0.086917  -1.437836  5.607527
C    0.598417  -0.415248  6.524870
N    -0.198947  0.777873  6.766075
C    0.238556  2.082304  6.744200
N    1.626460  2.252334  6.680854
N    -0.514436  3.137327  6.724183
H    0.780079  -0.522423  3.830960
H    0.012084  -2.061993  3.541415
H    0.456705  -2.384055  5.744735
H    -1.108557  -1.631883  5.974285
H    1.553800  -0.115820  6.069534
H    0.838825  -0.917538  7.479985
H    -1.205722  0.678890  6.664856
H    1.859213  3.227247  6.848358
H    2.172787  1.626449  7.265577
H    -1.503378  2.870364  6.696339
N    -1.021172  2.020699  3.792582
C    0.226065  2.127323  3.050086
H    -1.244941  2.827872  4.375942
H    0.154635  2.950796  2.326885
H    0.449174  1.210491  2.497783
H    1.059706  2.337373  3.736835
