35
Energy: -21190.6620718 eV PBE+vdW (tier 2 basis)
C    -2.300435  2.147846  0.009655
C    -1.549438  1.427730  1.107969
O    -0.317831  1.307038  1.083175
H    -1.962189  1.768038  -0.961153
H    -2.040267  3.213989  0.058603
H    -3.389877  2.048295  0.083574
N    -2.310726  0.962358  2.134065
C    -1.767649  0.203020  3.243113
C    -2.689132  -1.008816  3.457409
O    -3.891623  -0.944095  3.200278
H    -3.324583  0.932820  2.051843
H    -0.760549  -0.119051  2.940853
C    -1.697254  1.027129  4.555425
C    -0.897781  2.330651  4.465583
C    0.604481  2.132158  4.197585
N    1.396198  3.348220  4.174689
C    1.318507  4.343507  3.210086
N    0.742193  3.972945  2.001750
N    1.762739  5.517959  3.523579
H    -1.272965  0.378904  5.340185
H    -2.729033  1.251551  4.866269
H    -1.019449  2.877035  5.413573
H    -1.322189  2.977477  3.684129
H    0.746325  1.592850  3.249774
H    1.035545  1.486185  4.978778
H    1.644006  3.750280  5.072886
H    0.970987  4.581866  1.226415
H    0.678893  2.989156  1.739220
H    1.712859  6.156094  2.726206
N    -2.085045  -2.107455  3.982819
C    -2.806342  -3.319544  4.326770
H    -1.081663  -2.079524  4.119953
H    -2.447353  -4.174861  3.738215
H    -3.863518  -3.150226  4.098291
H    -2.702843  -3.552527  5.395436
