35
Energy: -21190.1830423 eV PBE+vdW (tier 2 basis)
C    0.182816  -1.118594  1.977400
C    -0.732364  -0.398324  2.944286
O    -1.021939  -0.872401  4.045161
H    1.184776  -1.161975  2.426502
H    0.256015  -0.640764  0.992607
H    -0.171730  -2.148574  1.855612
N    -1.165801  0.834605  2.540779
C    -2.140340  1.614539  3.309920
C    -3.227742  2.196992  2.387582
O    -4.409215  1.930388  2.581806
H    -0.978286  1.099860  1.581920
H    -2.676546  0.885771  3.931001
C    -1.553317  2.683432  4.260200
C    -0.727061  2.129222  5.432713
C    0.760692  1.909423  5.113578
N    1.502824  1.379039  6.243474
C    2.179782  0.171507  6.270369
N    1.707207  -0.792585  5.379855
N    3.184835  0.058144  7.076816
H    -2.418867  3.232951  4.660225
H    -0.956554  3.421633  3.702092
H    -0.790278  2.834392  6.275440
H    -1.161655  1.183798  5.785611
H    1.207376  2.868979  4.797173
H    0.884378  1.226162  4.265645
H    1.938981  2.046918  6.869634
H    2.097361  -1.712841  5.546460
H    0.702316  -0.827703  5.194588
H    3.526741  -0.905180  7.107929
N    -2.859944  2.989509  1.323576
C    -1.620552  3.710169  1.070921
H    -3.677586  3.316627  0.814493
H    -1.464605  3.798882  -0.011826
H    -0.757315  3.182722  1.488242
H    -1.630108  4.722942  1.504481
