37
Energy: -110552.109522 eV PBE+vdW (tier 2 basis)
C    -0.559555  0.819860  -0.205122
C    -0.906833  0.376454  1.179675
O    -0.292702  0.860676  2.186285
H    -1.173628  0.344851  -0.977373
H    -0.670992  1.909578  -0.281632
H    0.496890  0.589371  -0.400822
N    -1.863083  -0.541246  1.342736
C    -2.284165  -1.085575  2.634277
C    -2.632970  -2.606256  2.605393
O    -3.354718  -3.044054  3.491836
H    -2.373773  -0.836878  0.512468
H    -1.399397  -1.017188  3.283517
C    -3.448713  -0.283471  3.294214
C    -3.008981  0.421903  4.536883
C    -2.877616  -0.140830  5.792931
C    -2.536966  1.770618  4.656840
N    -2.312681  0.765023  6.666828
C    -2.075478  1.946406  6.012619
C    -2.453140  2.865461  3.762899
C    -1.453436  3.130828  6.438013
C    -1.843393  4.047997  4.191710
C    -1.324527  4.170088  5.507689
H    -4.234626  -1.007767  3.542111
H    -3.864304  0.425868  2.567475
H    -3.149294  -1.139301  6.123821
H    -2.179301  0.602649  7.660334
H    -2.860017  2.790103  2.754558
H    -1.103104  3.255582  7.463067
H    -1.789098  4.904011  3.519332
H    -0.868765  5.109602  5.817822
N    -2.077765  -3.349651  1.621613
C    -2.270681  -4.798416  1.546293
H    -1.379064  -2.935236  1.015375
H    -3.251267  -5.042961  1.964723
H    -1.501071  -5.333685  2.118232
H    -2.230724  -5.113652  0.498876
Sr    0.194943  2.022242  4.085503
