37
Energy: -110553.255974 eV PBE+vdW (tier 2 basis)
C    -1.373996  -0.893938  -0.567317
C    -1.326630  -1.150397  0.912053
O    -0.888201  -2.246156  1.338543
H    -1.947524  -1.697639  -1.046781
H    -0.353292  -0.947860  -0.969205
H    -1.811575  0.071456  -0.842008
N    -1.761896  -0.141701  1.702597
C    -1.930125  0.010112  3.160085
C    -0.640370  -0.193644  3.969251
O    0.097044  -1.207103  3.841626
H    -2.067462  0.673970  1.181188
H    -2.188416  1.069670  3.268016
C    -3.160793  -0.759380  3.759727
C    -3.228152  -2.220636  3.465819
C    -3.910279  -2.798501  2.414643
C    -2.510883  -3.286360  4.110098
N    -3.611498  -4.137779  2.332192
C    -2.739271  -4.474502  3.336188
C    -1.694743  -3.374629  5.261311
C    -2.085691  -5.684762  3.616208
C    -1.055294  -4.581540  5.548967
C    -1.226973  -5.717522  4.717887
H    -4.057033  -0.266215  3.360064
H    -3.169237  -0.568507  4.843689
H    -4.592823  -2.343883  1.703508
H    -4.024198  -4.785668  1.669510
H    -1.559174  -2.514454  5.916163
H    -2.256481  -6.577375  3.014432
H    -0.435377  -4.665621  6.440972
H    -0.720898  -6.647665  4.972738
N    -0.331450  0.739017  4.872318
C    -1.013342  2.001046  5.179916
H    0.517673  0.535413  5.397891
H    -1.009362  2.679618  4.317391
H    -0.465013  2.487836  5.991180
H    -2.041612  1.832843  5.522129
Sr    0.133345  -3.427541  3.064012
