37
Energy: -110552.638591 eV PBE+vdW (tier 2 basis)
C    -3.252751  -3.099861  1.729286
C    -2.659669  -1.820652  2.218544
O    -1.631504  -1.327044  1.675222
H    -2.505280  -3.899670  1.820537
H    -3.481543  -2.999642  0.659953
H    -4.159472  -3.393371  2.268180
N    -3.249403  -1.193632  3.262152
C    -2.747527  0.084434  3.747889
C    -1.627675  -0.089791  4.790447
O    -0.440982  -0.077520  4.345835
H    -4.078140  -1.612585  3.675368
H    -2.185537  0.449637  2.888331
C    -3.812962  1.205409  3.922055
C    -3.837178  1.945482  2.611281
C    -4.836586  2.010433  1.663000
C    -2.659770  2.489932  1.989131
N    -4.341723  2.545463  0.494753
C    -3.004496  2.820977  0.642738
C    -1.337436  2.728210  2.428498
C    -2.059150  3.287290  -0.274938
C    -0.388064  3.195764  1.506248
C    -0.743807  3.442207  0.161333
H    -3.511556  1.867865  4.747714
H    -4.800621  0.803265  4.183872
H    -5.876134  1.705763  1.730649
H    -4.891106  2.721517  -0.339298
H    -1.081302  2.665234  3.490297
H    -2.335843  3.533237  -1.299853
H    0.608903  3.482368  1.851321
H    0.006481  3.822356  -0.530157
N    -1.925616  -0.242254  6.072361
C    -0.951967  -0.432443  7.149427
H    -2.907785  -0.214042  6.334711
H    -1.136613  -1.390355  7.649913
H    -1.045633  0.379148  7.880582
H    0.053163  -0.429280  6.722138
Sr    0.110284  0.225151  2.017479
