37
Energy: -110552.192877 eV PBE+vdW (tier 2 basis)
C    -1.146709  -0.458452  -0.204054
C    -1.149834  0.277095  1.095879
O    -0.640581  -0.255804  2.132764
H    -0.162390  -0.906749  -0.382080
H    -1.872400  -1.281721  -0.124323
H    -1.426935  0.167259  -1.057638
N    -1.686349  1.503585  1.123510
C    -2.149042  2.273398  2.291569
C    -1.019848  2.937919  3.080145
O    -0.157724  2.250682  3.715063
H    -2.106277  1.801997  0.246683
H    -2.756704  3.070513  1.845614
C    -3.111141  1.458309  3.221015
C    -4.118793  0.702381  2.427756
C    -4.242748  -0.672838  2.344414
C    -5.098071  1.263895  1.533313
N    -5.240708  -0.990311  1.458395
C    -5.788990  0.169652  0.941683
C    -5.475839  2.574170  1.181594
C    -6.824148  0.345196  0.020302
C    -6.501048  2.752818  0.261572
C    -7.164773  1.650457  -0.313625
H    -3.582604  2.192489  3.893927
H    -2.541834  0.770529  3.864521
H    -3.710580  -1.453853  2.878312
H    -5.590930  -1.925028  1.286487
H    -5.014032  3.446068  1.649836
H    -7.350880  -0.503427  -0.414765
H    -6.813668  3.759928  -0.010085
H    -7.969749  1.826365  -1.025283
N    -1.024260  4.261595  3.136974
C    -0.093440  5.084859  3.908311
H    -1.726071  4.752049  2.588301
H    -0.653547  5.877275  4.416322
H    0.648715  5.541732  3.241183
H    0.414311  4.461368  4.647545
Sr    0.530105  0.102964  4.021379
