37
Energy: -110552.152922 eV PBE+vdW (tier 2 basis)
C    -0.506442  0.447137  -0.047536
C    -0.259404  0.273683  1.416950
O    0.899368  -0.039387  1.831221
H    -0.310307  -0.512017  -0.548031
H    -1.524971  0.769361  -0.286723
H    0.208527  1.172116  -0.457286
N    -1.288482  0.457111  2.255598
C    -1.400105  0.164865  3.701559
C    -0.613609  1.145040  4.580280
O    0.661551  1.167710  4.544768
H    -2.165592  0.705797  1.806359
H    -2.464075  0.308688  3.917013
C    -1.076136  -1.301391  4.100563
C    -1.483958  -1.549311  5.515096
C    -0.660968  -1.780478  6.601698
C    -2.836345  -1.543945  6.013220
N    -1.421915  -1.906363  7.736066
C    -2.759042  -1.765578  7.416342
C    -4.103725  -1.393098  5.416720
C    -3.893881  -1.819904  8.230460
C    -5.233146  -1.443791  6.223641
C    -5.127764  -1.649725  7.614750
H    -0.008279  -1.525924  3.956052
H    -1.622736  -1.952784  3.400670
H    0.416858  -1.901392  6.649253
H    -1.064962  -2.143212  8.653821
H    -4.214065  -1.275057  4.336766
H    -3.818977  -1.998414  9.302557
H    -6.220911  -1.341692  5.776667
H    -6.034274  -1.691102  8.216363
N    -1.259680  1.946462  5.407954
C    -2.705880  2.063642  5.643668
H    -0.652340  2.529352  5.984100
H    -2.853446  2.813634  6.425100
H    -3.126201  1.109495  5.984247
H    -3.224599  2.407711  4.740751
Sr    2.445910  0.313761  3.437307
