37
Energy: -110552.272719 eV PBE+vdW (tier 2 basis)
C    0.163032  -0.321528  0.038446
C    0.124650  -0.055178  1.511328
O    1.213316  0.199194  2.140041
H    0.784103  -1.209383  -0.144457
H    -0.829649  -0.491792  -0.389487
H    0.638088  0.520933  -0.481722
N    -1.044794  -0.090706  2.120172
C    -1.364336  -0.054743  3.543011
C    -2.717258  -0.839229  3.589164
O    -3.335011  -0.983107  2.531130
H    -1.904846  -0.378209  1.606221
H    -0.578934  -0.573519  4.108722
C    -1.575860  1.384257  4.110532
C    -0.345075  2.054450  4.640159
C    0.097830  2.014246  5.947974
C    0.596860  2.877842  3.934520
N    1.272737  2.723441  6.085666
C    1.613300  3.274374  4.876240
C    0.693474  3.340126  2.601596
C    2.722301  4.050344  4.498973
C    1.794975  4.113936  2.226199
C    2.807166  4.454570  3.161509
H    -2.312549  1.325531  4.921969
H    -2.050217  1.992916  3.328639
H    -0.353355  1.537411  6.812876
H    1.736538  2.907917  6.969756
H    -0.083217  3.100223  1.875663
H    3.477497  4.356843  5.223451
H    1.866624  4.492784  1.206899
H    3.639974  5.081358  2.844669
N    -3.161463  -1.299640  4.772420
C    -2.536299  -1.223562  6.084816
H    -4.072035  -1.752045  4.713515
H    -2.772485  -2.134136  6.645927
H    -2.898373  -0.360659  6.663672
H    -1.445269  -1.167743  5.997151
Sr    2.870370  1.504734  2.887661
