37
Energy: -110553.172146 eV PBE+vdW (tier 2 basis)
C    -0.560960  -0.688641  2.763146
C    -0.604627  -0.006919  4.096671
O    -1.123806  -0.578827  5.084865
H    -0.103290  -0.088392  1.970204
H    -1.585076  -0.954977  2.469811
H    -0.004831  -1.630199  2.865623
N    -0.071542  1.231249  4.172128
C    0.066432  2.156796  5.317847
C    0.824409  1.524452  6.503802
O    0.279311  0.713389  7.296555
H    0.322959  1.580737  3.304059
H    0.716125  2.945830  4.916736
C    -1.229302  2.920296  5.735351
C    -2.312826  2.238006  6.521115
C    -2.468832  2.310961  7.895317
C    -3.443231  1.479916  6.021015
N    -3.579343  1.576198  8.287184
C    -4.227299  1.091513  7.148851
C    -3.874882  1.096140  4.733467
C    -5.401240  0.333987  7.033682
C    -5.040557  0.356266  4.615542
C    -5.792003  -0.024202  5.749874
H    -1.659108  3.327120  4.808470
H    -0.885108  3.792747  6.309338
H    -1.870671  2.837059  8.633060
H    -4.018671  1.662451  9.199802
H    -3.316886  1.395254  3.846916
H    -5.999998  0.067129  7.904047
H    -5.398587  0.069922  3.627796
H    -6.708639  -0.595939  5.613129
N    2.089097  1.905342  6.669064
C    2.947512  1.413302  7.748282
H    2.493632  2.556416  6.003634
H    3.870101  1.999305  7.752476
H    3.191703  0.354785  7.594283
H    2.441079  1.526223  8.713230
Sr    -1.778476  -0.447968  7.304596
