37
Energy: -110552.348033 eV PBE+vdW (tier 2 basis)
C    -0.361208  2.211582  0.877841
C    -0.904511  1.295736  1.924811
O    -1.347178  1.760535  3.027572
H    -0.048177  1.680932  -0.027846
H    0.487606  2.777622  1.284234
H    -1.138582  2.943069  0.617000
N    -0.918880  -0.010969  1.664638
C    -1.625730  -1.051482  2.429874
C    -0.861977  -1.414604  3.720996
O    -0.983737  -0.670656  4.748316
H    -0.657939  -0.274883  0.704347
H    -2.578775  -0.615783  2.771948
C    -1.955583  -2.242054  1.489177
C    -2.542582  -1.793559  0.189785
C    -3.880060  -1.663325  -0.133199
C    -1.792804  -1.344913  -0.955854
N    -3.995482  -1.148325  -1.398946
C    -2.741544  -0.932229  -1.933774
C    -0.417592  -1.251295  -1.259591
C    -2.359121  -0.419902  -3.175820
C    -0.036140  -0.732260  -2.493195
C    -0.996886  -0.317002  -3.436110
H    -2.635391  -2.916406  2.027267
H    -1.040930  -2.821204  1.270657
H    -4.763297  -1.924735  0.440685
H    -4.870869  -1.008285  -1.889296
H    0.347536  -1.637884  -0.579846
H    -3.096922  -0.118059  -3.918471
H    1.020592  -0.673445  -2.750073
H    -0.665476  0.073468  -4.396812
N    -0.116289  -2.503677  3.740886
C    0.651873  -2.991148  4.886301
H    -0.081964  -3.056578  2.887378
H    0.544803  -4.079101  4.948560
H    0.270877  -2.532072  5.801406
H    1.714092  -2.743195  4.763459
Sr    -1.545749  1.487087  5.249694
