37
Energy: -110552.310825 eV PBE+vdW (tier 2 basis)
C    -0.519123  -1.194035  -0.169256
C    -0.701410  -0.120765  0.854253
O    -0.317874  1.068103  0.616283
H    -1.119284  -0.932692  -1.053063
H    -0.820691  -2.186354  0.181463
H    0.528397  -1.225509  -0.494155
N    -1.288168  -0.439556  2.014088
C    -1.760761  0.486489  3.056624
C    -0.602792  0.896072  3.991711
O    0.379498  1.546770  3.495527
H    -1.566641  -1.411696  2.130931
H    -2.048042  1.420005  2.548075
C    -3.023608  -0.141931  3.698614
C    -3.560389  0.579248  4.895333
C    -3.840043  0.002908  6.125715
C    -3.893755  1.975472  5.003909
N    -4.312339  0.964506  6.981980
C    -4.360281  2.182617  6.333356
C    -3.875908  3.068842  4.115910
C    -4.779499  3.433159  6.796098
C    -4.295417  4.311828  4.571469
C    -4.735185  4.492453  5.899028
H    -2.804654  -1.187268  3.972098
H    -3.779062  -0.184292  2.896580
H    -3.779232  -1.036435  6.435490
H    -4.642345  0.790382  7.923986
H    -3.598025  2.942810  3.067401
H    -5.141054  3.571701  7.814351
H    -4.313477  5.161064  3.889566
H    -5.065268  5.478705  6.221212
N    -0.665989  0.590176  5.267419
C    0.330851  0.960014  6.268424
H    -1.581051  0.245310  5.600134
H    0.071834  1.925606  6.723699
H    1.317832  1.028808  5.804152
H    0.345131  0.191903  7.047985
Sr    0.973822  2.652582  1.605610
