37
Energy: -110552.084711 eV PBE+vdW (tier 2 basis)
C    -0.049344  0.497995  0.510387
C    -0.230993  0.183086  1.960058
O    0.769656  0.206358  2.750198
H    0.634536  -0.240612  0.068998
H    -0.987719  0.489587  -0.053931
H    0.425401  1.481767  0.403457
N    -1.451819  -0.133772  2.398705
C    -1.754899  -0.551400  3.767031
C    -2.473260  -1.917587  3.938474
O    -1.982303  -2.666293  4.779708
H    -2.200752  -0.128823  1.711191
H    -0.784038  -0.787281  4.208082
C    -2.399236  0.573407  4.623440
C    -1.367508  1.571585  5.042072
C    -1.244617  2.891466  4.666558
C    -0.231626  1.288009  5.876041
N    -0.085888  3.433919  5.187254
C    0.565869  2.485716  5.932646
C    0.192328  0.146599  6.598683
C    1.780474  2.536311  6.636659
C    1.396675  0.204150  7.310301
C    2.188170  1.381529  7.317861
H    -2.847953  0.097447  5.508005
H    -3.217914  1.061443  4.079308
H    -1.908911  3.501944  4.062840
H    0.175761  4.412227  5.117858
H    -0.414222  -0.761367  6.616774
H    2.372361  3.450694  6.688798
H    1.717218  -0.656954  7.896632
H    3.108090  1.404490  7.901274
N    -3.592066  -2.212711  3.238257
C    -4.318773  -1.406958  2.266807
H    -3.961353  -3.138078  3.447527
H    -5.359211  -1.746321  2.236675
H    -4.347855  -0.348686  2.557339
H    -3.915114  -1.509794  1.246297
Sr    2.160749  0.376877  4.536598
