37
Energy: -110552.30765 eV PBE+vdW (tier 2 basis)
C    0.507521  -1.288561  5.235993
C    0.067086  -0.757317  3.910247
O    0.841746  -0.820019  2.903476
H    1.470920  -0.843010  5.514123
H    -0.217578  -1.115160  6.037755
H    0.673921  -2.371057  5.136209
N    -1.158675  -0.230721  3.810760
C    -1.884686  0.147586  2.581210
C    -1.440537  1.549786  2.108527
O    -0.248915  1.680612  1.658389
H    -1.715808  -0.216219  4.662831
H    -1.548801  -0.533544  1.783451
C    -3.391814  -0.099635  2.838297
C    -4.312527  0.330244  1.740881
C    -4.512987  -0.273748  0.513110
C    -5.155245  1.497062  1.769871
N    -5.409106  0.464245  -0.218526
C    -5.821856  1.559055  0.513264
C    -5.417096  2.496984  2.730962
C    -6.715324  2.583340  0.191166
C    -6.297982  3.523304  2.405775
C    -6.935371  3.566123  1.149846
H    -3.681062  0.410594  3.772306
H    -3.493163  -1.176531  3.042477
H    -4.105193  -1.197067  0.113922
H    -5.766713  0.204048  -1.129866
H    -4.992346  2.448758  3.737315
H    -7.228557  2.610468  -0.769460
H    -6.525225  4.291684  3.143294
H    -7.630028  4.376011  0.933446
N    -2.258149  2.574162  2.165781
C    -1.919630  3.923640  1.714905
H    -3.249171  2.411470  2.389298
H    -1.074876  4.319669  2.289996
H    -2.797159  4.556714  1.870835
H    -1.660051  3.920684  0.648887
Sr    1.667438  0.534347  1.281244
