37
Energy: -110552.039032 eV PBE+vdW (tier 2 basis)
C    1.683676  0.535913  0.769954
C    0.950869  0.357931  2.056766
O    1.557699  -0.052636  3.101528
H    1.034847  0.860902  -0.049466
H    2.173456  -0.407435  0.494421
H    2.480661  1.278862  0.913731
N    -0.352833  0.640358  2.109750
C    -1.133512  0.583914  3.339752
C    -1.289901  -0.867851  3.827578
O    -0.663698  -1.174051  4.907257
H    -0.859487  0.964695  1.275389
H    -0.516263  1.031103  4.132128
C    -2.401190  1.503956  3.246469
C    -3.152826  1.532621  1.958601
C    -2.793501  2.232801  0.809320
C    -4.432767  0.933596  1.688766
N    -3.760018  2.063138  -0.147649
C    -4.781569  1.279646  0.354720
C    -5.330082  0.160459  2.449218
C    -5.975061  0.862236  -0.242251
C    -6.518921  -0.251023  1.862301
C    -6.833862  0.091171  0.529993
H    -2.028693  2.511599  3.480194
H    -3.066636  1.231427  4.076500
H    -1.970113  2.922052  0.640511
H    -3.768474  2.521362  -1.051301
H    -5.117056  -0.092078  3.489520
H    -6.230401  1.140097  -1.264135
H    -7.232975  -0.835131  2.441094
H    -7.778082  -0.244204  0.104019
N    -1.967496  -1.811311  3.194249
C    -2.662934  -1.806022  1.909334
H    -1.964929  -2.704916  3.688292
H    -2.502460  -0.863261  1.383713
H    -3.742402  -1.924883  2.063091
H    -2.287177  -2.641563  1.306657
Sr    1.592107  -0.943475  5.203988
