37
Energy: -110552.19253 eV PBE+vdW (tier 2 basis)
C    -1.538239  -0.362491  -0.136757
C    -1.382704  0.362558  1.159158
O    -0.834239  -0.209246  2.154634
H    -0.657132  -0.980567  -0.338790
H    -2.403584  -1.036097  -0.033960
H    -1.727548  0.305057  -0.984108
N    -1.825086  1.626456  1.227535
C    -2.221859  2.378309  2.430693
C    -1.047512  2.972632  3.209666
O    -0.181415  2.234470  3.777913
H    -2.287905  1.953333  0.382084
H    -2.802992  3.214906  2.024480
C    -3.193145  1.571490  3.361935
C    -4.174537  0.774396  2.573517
C    -4.327295  -0.599904  2.604345
C    -5.086425  1.270596  1.574244
N    -5.275430  -0.979083  1.688729
C    -5.764221  0.139846  1.038136
C    -5.407876  2.548884  1.077443
C    -6.732297  0.248035  0.037194
C    -6.365260  2.660238  0.076551
C    -7.017749  1.522419  -0.438319
H    -3.685963  2.316481  4.006824
H    -2.625888  0.910876  4.034793
H    -3.845176  -1.339351  3.235851
H    -5.641044  -1.918010  1.584415
H    -4.961564  3.453324  1.495889
H    -7.250540  -0.627665  -0.352109
H    -6.634275  3.643678  -0.305928
H    -7.770232  1.646232  -1.215345
N    -1.012918  4.291631  3.329142
C    -0.031870  5.051423  4.103326
H    -1.719187  4.826673  2.830236
H    0.710244  5.503980  3.433150
H    0.470301  4.383676  4.806942
H    -0.548542  5.845350  4.653082
Sr    0.476104  0.063463  3.960412
