37
Energy: -110552.197405 eV PBE+vdW (tier 2 basis)
C    0.352269  0.846864  0.553159
C    0.031193  0.439100  1.961418
O    0.770427  0.628617  2.917556
H    -0.404200  0.543096  -0.179186
H    1.320775  0.414133  0.272365
H    0.471863  1.937797  0.518978
N    -1.199459  -0.222669  2.149275
C    -1.613275  -0.447345  3.516088
C    -1.827705  -1.916131  3.851303
O    -2.114198  -2.242481  5.052990
H    -1.910015  -0.088285  1.433586
H    -0.709956  -0.161272  4.089427
C    -2.790968  0.477291  3.941637
C    -2.991950  0.672549  5.414061
C    -4.176100  0.496125  6.106882
C    -2.016060  1.147766  6.381927
N    -3.988095  0.784790  7.459167
C    -2.680193  1.239800  7.645484
C    -0.636237  1.457623  6.312660
C    -2.021011  1.621998  8.823007
C    0.015043  1.831530  7.480767
C    -0.665459  1.915036  8.716294
H    -3.729275  0.138860  3.479816
H    -2.562776  1.460826  3.503272
H    -5.156415  0.207603  5.738874
H    -4.752790  0.970768  8.103770
H    -0.094110  1.429920  5.366769
H    -2.548000  1.713781  9.772563
H    1.073337  2.086054  7.442975
H    -0.119542  2.232413  9.603761
N    -1.659732  -2.807231  2.895010
C    -1.752238  -4.256684  3.035131
H    -1.367234  -2.415458  1.998090
H    -2.443831  -4.653665  2.283205
H    -2.119866  -4.501908  4.034089
H    -0.764523  -4.710094  2.885122
Sr    -2.355695  -1.470122  7.168706
