37
Energy: -110553.237721 eV PBE+vdW (tier 2 basis)
C    0.091488  1.184993  2.077001
C    -0.694218  0.039850  2.642692
O    -0.702281  -0.174120  3.880770
H    0.019758  1.278832  0.988527
H    1.146561  1.059685  2.355603
H    -0.252704  2.119041  2.540054
N    -1.371533  -0.728522  1.764978
C    -2.174360  -1.952674  1.956958
C    -3.412857  -1.711603  2.843835
O    -3.339276  -1.366618  4.051166
H    -1.274343  -0.445837  0.794544
H    -2.550659  -2.145741  0.945428
C    -1.346287  -3.246211  2.346535
C    -1.567231  -3.797388  3.717669
C    -2.608089  -4.616746  4.108207
C    -0.842605  -3.476803  4.917053
N    -2.610139  -4.764930  5.476139
C    -1.561562  -4.061301  6.014344
C    0.343128  -2.755913  5.190201
C    -1.203885  -3.826320  7.350512
C    0.704014  -2.529689  6.519269
C    -0.078662  -3.033454  7.588152
H    -0.286072  -3.016602  2.179913
H    -1.606859  -4.013432  1.606415
H    -3.364660  -5.107627  3.504022
H    -3.243072  -5.364824  5.994698
H    0.961708  -2.370987  4.381078
H    -1.765011  -4.262407  8.176914
H    1.618471  -1.981627  6.743772
H    0.233729  -2.844408  8.614208
N    -4.592081  -1.922207  2.260168
C    -5.876485  -1.768908  2.942951
H    -4.610447  -2.151091  1.271287
H    -6.646101  -2.283321  2.360997
H    -6.143467  -0.708145  3.034491
H    -5.819071  -2.208934  3.943764
Sr    -1.768699  -0.970512  5.781876
