37
Energy: -110551.95954 eV PBE+vdW (tier 2 basis)
C    -0.817955  0.059246  -0.336773
C    -0.766701  0.263908  1.140962
O    0.206318  0.887131  1.675905
H    -1.724400  -0.456665  -0.669751
H    0.059144  -0.527398  -0.644532
H    -0.749433  1.030314  -0.844161
N    -1.748701  -0.225598  1.902350
C    -1.721042  -0.221431  3.369140
C    -2.356056  -1.475877  4.016672
O    -1.748630  -1.982871  4.953994
H    -2.460773  -0.781637  1.434842
H    -0.667418  -0.332796  3.649849
C    -2.295393  1.081152  4.010792
C    -1.258180  2.066195  4.463557
C    -1.150358  3.395001  4.099103
C    -0.213472  1.822229  5.444321
N    -0.074528  3.987214  4.761819
C    0.485779  3.054910  5.637928
C    0.238346  0.661206  6.118034
C    1.607853  3.164485  6.473283
C    1.356232  0.772028  6.936179
C    2.028011  2.002957  7.114859
H    -2.884324  0.792120  4.894426
H    -2.995506  1.558712  3.313524
H    -1.776429  3.984999  3.436311
H    0.045459  4.993901  4.845267
H    -0.283073  -0.292398  6.009271
H    2.114481  4.115984  6.634324
H    1.714688  -0.106569  7.470900
H    2.886390  2.047837  7.783915
N    -3.540567  -1.915236  3.530763
C    -4.233773  -3.065104  4.118787
H    -4.083449  -1.319706  2.913207
H    -3.487117  -3.790850  4.453651
H    -4.874863  -3.522484  3.359075
H    -4.843799  -2.764772  4.980913
Sr    1.352355  2.098183  3.213560
