28
Energy: -170630.517520 eV PBE+vdW (tier 2 basis)
N    1.471582  -0.688399  -0.856186
C    0.291085  -0.100730  -0.139690
C    0.748713  0.570545  1.175736
O    1.790430  0.251145  1.781307
H    1.229753  -1.594580  -1.274802
H    1.767843  -0.083637  -1.633368
H    -0.127401  0.689030  -0.785521
C    -0.783556  -1.200982  0.121491
C    -2.147433  -0.713136  0.657126
C    -3.174895  -1.874928  0.700906
N    -4.423606  -1.494442  1.359500
C    -5.687422  -1.633644  0.875427
N    -6.697126  -1.726841  1.741612
N    -5.923243  -1.669231  -0.438627
H    -0.363641  -1.958551  0.803318
H    -0.941471  -1.694843  -0.850707
H    -2.545966  0.095016  0.023865
H    -2.039283  -0.314012  1.677033
H    -2.745661  -2.727079  1.252644
H    -3.400889  -2.242006  -0.307685
H    -4.367498  -1.318611  2.360267
H    -6.553476  -1.977509  2.715239
H    -6.839302  -1.928414  -0.794141
H    -5.270729  -1.292299  -1.114511
H    -7.662657  -1.618665  1.441908
O    0.002439  1.480899  1.731214
H    -0.763413  1.772014  1.194887
Cd    3.229820  -0.916111  0.628760
