28
Energy: -170631.266273 eV PBE+vdW (tier 2 basis)
N    1.097131  -0.718287  0.249595
C    0.327742  0.427645  0.901220
C    1.349675  1.347660  1.614468
O    2.586785  1.148962  1.400774
H    0.533224  -1.182689  -0.478291
H    1.378640  -1.435164  0.936235
H    -0.054984  1.035891  0.064149
C    -0.841840  -0.048973  1.778236
C    -1.969223  -0.734880  0.972852
C    -3.344290  -0.804039  1.667185
N    -3.437823  -1.831948  2.708608
C    -4.443439  -1.897319  3.623782
N    -4.416417  -2.867033  4.542122
N    -5.422561  -0.991490  3.631148
H    -1.229668  0.860925  2.259183
H    -0.469208  -0.689560  2.592899
H    -1.679220  -1.749644  0.653068
H    -2.147619  -0.166216  0.046862
H    -4.092817  -0.994924  0.879337
H    -3.579446  0.169706  2.120989
H    -2.987607  -2.722259  2.508763
H    -5.225024  -3.067544  5.123666
H    -3.592992  -3.437815  4.698863
H    -6.093366  -0.958787  4.393778
H    -5.654431  -0.442047  2.811709
O    0.908449  2.297132  2.324127
H    1.966873  -0.372792  -0.190697
Cd    3.019456  3.015490  2.644369
