28
Energy: -170631.411486 eV PBE+vdW (tier 2 basis)
N    1.219608  -1.011752  -0.743481
C    0.857995  -0.804071  0.724514
C    1.875584  0.196999  1.327305
O    1.836036  0.415334  2.572547
H    2.021214  -1.652466  -0.855178
H    0.428130  -1.402802  -1.275394
H    -0.104485  -0.265777  0.721279
C    0.736144  -2.122413  1.504236
C    -0.459961  -3.007115  1.092311
C    -0.594810  -4.229742  2.028394
N    -1.737645  -5.059704  1.651520
C    -2.487329  -5.811436  2.496326
N    -3.629074  -6.339083  2.046702
N    -2.106847  -6.004272  3.761889
H    0.632981  -1.828259  2.558943
H    1.683952  -2.681376  1.435749
H    -0.341716  -3.371239  0.057843
H    -1.392680  -2.424173  1.131700
H    -0.752040  -3.884957  3.060125
H    0.335497  -4.822393  2.005959
H    -1.889023  -5.229647  0.660449
H    -4.109633  -7.073466  2.558909
H    -2.740923  -6.428677  4.433013
H    -1.135109  -5.942372  4.042830
H    -4.078026  -6.007847  1.199006
O    2.669342  0.795820  0.535753
H    1.492516  -0.116623  -1.183987
Cd    3.445302  1.972513  2.335738
