28
Energy: -170630.967993 eV PBE+vdW (tier 2 basis)
N    1.873703  2.278123  1.094961
C    0.816520  1.265233  0.773444
C    -0.522870  1.964124  0.443117
O    -0.661422  3.191984  0.262715
H    2.048811  2.308191  2.107191
H    2.764886  2.032679  0.650701
H    1.103614  0.797255  -0.185078
C    0.664671  0.166482  1.858458
C    1.833134  -0.838844  1.920685
C    1.514061  -1.991166  2.894407
N    2.577447  -2.996596  2.896035
C    2.780251  -3.926286  3.864329
N    3.879779  -4.685704  3.803041
N    1.917608  -4.067742  4.871023
H    -0.264068  -0.373830  1.630639
H    0.502974  0.649118  2.836954
H    2.769433  -0.353692  2.236523
H    2.002567  -1.254989  0.914077
H    0.553528  -2.456153  2.608022
H    1.407320  -1.603433  3.918808
H    3.083947  -3.145771  2.026616
H    3.990390  -5.504846  4.395003
H    2.140646  -4.656992  5.668571
H    0.959127  -3.744664  4.809427
H    4.664866  -4.451314  3.203548
O    -1.510814  1.132083  0.308438
H    -2.348158  1.576733  0.034383
Cd    1.166047  4.386019  0.434966
