28
Energy: -170630.519573 eV PBE+vdW (tier 2 basis)
N    1.592052  -1.213051  -0.768735
C    0.361376  -0.467964  -0.337901
C    0.702322  0.513779  0.805900
O    1.697053  0.388137  1.546868
H    1.381634  -2.207086  -0.918942
H    1.940039  -0.855118  -1.667543
H    0.025801  0.134300  -1.198263
C    -0.762569  -1.468769  0.079064
C    -2.178903  -0.872802  0.241458
C    -3.247297  -1.993779  0.351158
N    -4.611657  -1.466798  0.335492
C    -5.612689  -1.738230  1.215775
N    -6.875628  -1.617576  0.803930
N    -5.347959  -2.109679  2.470750
H    -0.458713  -1.993315  0.999023
H    -0.797600  -2.221327  -0.724990
H    -2.420055  -0.253316  -0.637631
H    -2.246998  -0.231014  1.131950
H    -3.103663  -2.588886  1.261158
H    -3.141065  -2.689050  -0.497094
H    -4.917956  -1.048175  -0.540177
H    -7.125502  -1.607562  -0.180429
H    -4.459704  -1.914084  2.914746
H    -6.086651  -2.457160  3.075838
H    -7.648181  -1.601463  1.464774
O    -0.100635  1.504663  1.066221
H    -0.826570  1.629395  0.421121
Cd    3.242715  -0.973075  0.829480
