28
Energy: -170630.502684 eV PBE+vdW (tier 2 basis)
N    -0.076320  0.994004  0.744543
C    0.042822  0.314218  2.075524
C    1.530186  0.044711  2.430033
O    2.475514  0.199384  1.632321
H    -0.665849  0.449383  0.105142
H    -0.520835  1.914660  0.836713
H    -0.312535  1.031820  2.834728
C    -0.796753  -0.997902  2.148689
C    -2.321485  -0.754366  2.172964
C    -3.197178  -2.024781  2.176815
N    -3.314451  -2.651521  3.498910
C    -3.822547  -3.898610  3.708792
N    -3.871983  -4.368380  4.958954
N    -4.230759  -4.654884  2.689981
H    -0.492124  -1.556549  3.045986
H    -0.515705  -1.641818  1.298387
H    -2.631928  -0.188580  1.281362
H    -2.591057  -0.114938  3.029099
H    -2.789523  -2.769839  1.477554
H    -4.195927  -1.734925  1.808711
H    -3.409118  -2.017859  4.290076
H    -3.387498  -3.914198  5.726109
H    -4.478005  -5.630601  2.832404
H    -4.488045  -4.258972  1.793205
H    -4.389185  -5.213236  5.187856
O    1.843107  -0.373630  3.620488
H    1.101236  -0.440091  4.255482
Cd    2.026777  1.228119  -0.221936
