28
Energy: -170630.248599 eV PBE+vdW (tier 2 basis)
N    0.962809  -2.884571  2.013608
C    0.368256  -2.010002  0.947346
C    1.450061  -1.580358  -0.073293
O    2.661864  -1.852305  0.037785
H    0.920053  -2.420826  2.929532
H    0.427131  -3.755983  2.108395
H    -0.336180  -2.640644  0.378626
C    -0.412583  -0.813399  1.591173
C    -1.396473  -0.073061  0.654769
C    -2.515318  0.724907  1.386926
N    -2.148348  2.053273  1.877684
C    -2.692870  3.232218  1.467206
N    -2.666983  4.275848  2.299468
N    -3.232668  3.358613  0.254175
H    0.305976  -0.114337  2.046754
H    -0.999379  -1.262467  2.407426
H    -1.930368  -0.811566  0.033878
H    -0.864755  0.619552  -0.016726
H    -2.897886  0.137252  2.234939
H    -3.362123  0.838587  0.699168
H    -1.667845  2.099540  2.771838
H    -2.535213  4.165884  3.300208
H    -3.784541  4.176767  0.011550
H    -3.051018  2.702621  -0.494931
H    -2.885913  5.214613  1.976089
O    1.102879  -0.901874  -1.127923
H    0.140478  -0.742509  -1.211932
Cd    3.186960  -3.314775  1.556264
