28
Energy: -170630.327175 eV PBE+vdW (tier 2 basis)
N    0.922970  1.097135  2.034967
C    0.789990  -0.263498  2.649485
C    1.927015  -1.207989  2.166967
O    2.785700  -0.886091  1.320911
H    0.128209  1.298109  1.417418
H    0.926622  1.828228  2.755006
H    0.970338  -0.141193  3.731654
C    -0.620095  -0.888998  2.426291
C    -1.740121  -0.218876  3.254279
C    -3.017741  -1.074719  3.445338
N    -3.948026  -1.128115  2.312850
C    -5.260063  -0.764815  2.348025
N    -5.698123  0.152706  3.211371
N    -6.108021  -1.330287  1.485207
H    -0.561421  -1.951298  2.709820
H    -0.843517  -0.888990  1.346515
H    -2.015223  0.760866  2.835658
H    -1.361701  -0.031052  4.271424
H    -3.563356  -0.689345  4.314746
H    -2.740480  -2.108198  3.707997
H    -3.705711  -1.750774  1.546910
H    -5.074312  0.788224  3.692713
H    -7.043234  -0.957640  1.343015
H    -5.900917  -2.209938  1.022623
H    -6.693060  0.299888  3.356686
O    2.031350  -2.403146  2.663854
H    1.387289  -2.635861  3.363653
Cd    2.860643  1.199664  0.752617
