28
Energy: -170630.537510 eV PBE+vdW (tier 2 basis)
N    -0.023232  0.650326  -0.728810
C    0.034547  -0.005791  0.618765
C    1.501959  -0.313195  0.995833
O    2.404993  -0.477523  0.152709
H    -0.834239  0.316059  -1.262996
H    -0.140966  1.667793  -0.636764
H    -0.353372  0.716731  1.355973
C    -0.842231  -1.295702  0.628607
C    -1.038670  -1.977521  2.000575
C    -2.110322  -3.090652  1.919990
N    -2.256577  -3.774551  3.203510
C    -3.397692  -4.336762  3.682164
N    -4.479755  -4.459979  2.911278
N    -3.423558  -4.745553  4.953852
H    -0.428660  -2.017779  -0.094235
H    -1.827065  -0.982367  0.246980
H    -1.360121  -1.240588  2.753316
H    -0.091983  -2.423583  2.343077
H    -1.840692  -3.813289  1.130616
H    -3.082360  -2.649773  1.657695
H    -1.404745  -4.021389  3.702045
H    -5.373317  -4.729800  3.314028
H    -4.164509  -5.350089  5.299358
H    -2.732954  -4.441725  5.633223
H    -4.417150  -4.499992  1.900436
O    1.829234  -0.468650  2.246250
H    1.123544  -0.246413  2.887783
Cd    1.948892  0.227754  -1.863255
