28
Energy: -170631.169024 eV PBE+vdW (tier 2 basis)
N    -0.626593  0.344495  0.307773
C    -0.202925  0.113650  1.754611
C    1.322577  0.347154  1.861514
O    1.914480  0.001334  2.925272
H    -1.643030  0.512443  0.244562
H    -0.138764  1.165874  -0.089294
H    -0.624656  0.967073  2.313420
C    -0.781657  -1.170378  2.367577
C    -0.420267  -2.530195  1.739418
C    -1.029187  -3.673139  2.585305
N    -0.727483  -5.002478  2.047954
C    -1.568764  -6.068678  1.992984
N    -1.049338  -7.298268  1.995205
N    -2.892176  -5.904765  1.919931
H    -1.876398  -1.042495  2.387682
H    -0.469619  -1.149321  3.422635
H    0.673633  -2.654019  1.698396
H    -0.797152  -2.619522  0.707841
H    -2.117354  -3.556786  2.657021
H    -0.645107  -3.611550  3.617232
H    0.258571  -5.237796  1.964707
H    -1.606757  -8.107731  1.736276
H    -3.519915  -6.695977  2.029118
H    -3.313909  -5.036153  1.616563
H    -0.106032  -7.485791  2.319146
O    1.896343  0.976502  0.915892
H    -0.403642  -0.458191  -0.299719
Cd    3.772122  1.057710  2.202976
