28
Energy: -170630.941503 eV PBE+vdW (tier 2 basis)
N    -0.618533  1.825493  1.401522
C    0.876678  1.841484  1.506256
C    1.504975  2.003683  0.109954
O    0.896565  2.453217  -0.884623
H    -0.978106  0.864477  1.345522
H    -1.038331  2.243772  2.240086
H    1.132826  2.799695  1.995229
C    1.479950  0.729416  2.404797
C    1.394811  -0.738883  1.943475
C    2.128019  -1.639398  2.961389
N    2.098406  -3.048457  2.569677
C    2.296916  -4.098595  3.408258
N    2.102264  -5.336706  2.941272
N    2.654099  -3.905203  4.677860
H    1.007842  0.845325  3.392301
H    2.533555  1.011083  2.550398
H    1.862465  -0.856282  0.953344
H    0.351448  -1.082284  1.860511
H    1.648782  -1.551095  3.947809
H    3.172737  -1.294974  3.063432
H    2.144541  -3.262274  1.576435
H    2.400433  -6.153595  3.467981
H    2.657628  -4.675697  5.340701
H    3.092872  -3.046874  4.990635
H    1.605677  -5.514296  2.073990
O    2.769593  1.704352  0.069885
H    3.179499  1.923927  -0.800401
Cd    -1.216611  2.955686  -0.521691
