28
Energy: -170630.519522 eV PBE+vdW (tier 2 basis)
N    1.511320  -1.198312  0.087163
C    0.249585  -0.394598  0.206059
C    0.494008  0.849370  1.091189
O    1.394037  0.911521  1.951444
H    1.307250  -2.204304  0.121695
H    1.970320  -1.029838  -0.817550
H    -0.009860  -0.035819  -0.803858
C    -0.903316  -1.281720  0.769594
C    -2.319048  -0.665278  0.742790
C    -3.385830  -1.708939  1.167327
N    -4.719145  -1.125297  1.306165
C    -5.872651  -1.559259  0.729838
N    -7.031575  -1.273709  1.324593
N    -5.855280  -2.251733  -0.412111
H    -0.649403  -1.590928  1.796743
H    -0.903309  -2.192682  0.149786
H    -2.560692  -0.293600  -0.265338
H    -2.380790  0.187640  1.435609
H    -3.105151  -2.149440  2.137885
H    -3.433226  -2.539802  0.452825
H    -4.846879  -0.476067  2.079340
H    -7.086051  -1.002630  2.301853
H    -5.072317  -2.216102  -1.052897
H    -6.697378  -2.704472  -0.756629
H    -7.917435  -1.385368  0.838209
O    -0.296903  1.878535  0.993505
H    -0.939427  1.838198  0.255608
Cd    2.961144  -0.598366  1.786162
