28
Energy: -170630.969301 eV PBE+vdW (tier 2 basis)
N    2.465211  -0.714660  1.581509
C    0.977747  -0.803351  1.433927
C    0.407414  0.517564  0.865684
O    1.095248  1.457554  0.418090
H    2.725390  -0.611267  2.570159
H    2.920889  -1.569422  1.244845
H    0.778467  -1.534000  0.629875
C    0.254431  -1.252773  2.732947
C    0.418299  -2.748380  3.068541
C    -0.417333  -3.127046  4.309501
N    -0.334089  -4.559311  4.590426
C    -1.256520  -5.288094  5.269636
N    -1.142845  -6.620326  5.275270
N    -2.267631  -4.692989  5.903428
H    -0.811655  -1.028240  2.595211
H    0.592777  -0.617105  3.568711
H    1.476136  -2.996164  3.255154
H    0.084116  -3.358680  2.215694
H    -1.474735  -2.876864  4.134872
H    -0.074940  -2.545490  5.183636
H    0.548274  -5.027919  4.400387
H    -1.683623  -7.194524  5.916760
H    -3.038594  -5.238506  6.278988
H    -2.225675  -3.722318  6.191794
H    -0.557781  -7.114158  4.608600
O    -0.891077  0.540102  0.841440
H    -1.248583  1.357928  0.420609
Cd    3.265684  1.146436  0.446303
