28
Energy: -170631.446011 eV PBE+vdW (tier 2 basis)
N    1.380127  -1.162043  -0.557133
C    0.842123  -0.883946  0.843707
C    1.757718  0.179160  1.501795
O    1.563010  0.467862  2.717778
H    1.686423  -0.285420  -1.012659
H    2.201533  -1.786881  -0.536514
H    -0.125380  -0.375802  0.696014
C    0.659230  -2.159817  1.680235
C    -0.452098  -3.106415  1.178073
C    -0.678780  -4.272420  2.167589
N    -1.732381  -5.168661  1.695007
C    -2.575799  -5.888347  2.477184
N    -3.624222  -6.489638  1.908412
N    -2.379241  -5.978255  3.795109
H    0.418122  -1.810161  2.694772
H    1.622656  -2.689520  1.762113
H    -0.190933  -3.530340  0.193799
H    -1.395893  -2.552985  1.058378
H    -0.987980  -3.869653  3.142337
H    0.262953  -4.828527  2.312700
H    -1.732155  -5.414647  0.708242
H    -4.153587  -7.204868  2.399141
H    -3.092330  -6.379717  4.397484
H    -1.460923  -5.860342  4.207430
H    -3.953631  -6.235186  0.982861
O    2.628470  0.753625  0.775932
H    0.665329  -1.601873  -1.155358
Cd    3.155640  2.053818  2.581571
