28
Energy: -170631.291383 eV PBE+vdW (tier 2 basis)
N    -0.419736  0.121750  0.029238
C    -0.021671  0.068333  1.501709
C    1.446173  0.546038  1.610863
O    1.981756  1.052408  0.573474
H    -1.446008  0.126029  -0.079378
H    -0.055726  -0.687988  -0.498212
H    -0.620828  0.848501  1.999544
C    -0.335974  -1.320476  2.097114
C    -0.541035  -1.328491  3.625035
C    -0.964905  -2.728788  4.117962
N    -1.226578  -2.720235  5.556923
C    -2.064411  -3.559678  6.214355
N    -2.369350  -3.297847  7.489208
N    -2.595637  -4.617515  5.596914
H    0.447652  -2.035387  1.801808
H    -1.268201  -1.665413  1.618658
H    -1.320915  -0.602033  3.899042
H    0.386844  -1.023847  4.130838
H    -0.178976  -3.464797  3.875256
H    -1.889175  -3.041365  3.610142
H    -0.627648  -2.142460  6.141233
H    -2.822415  -3.991997  8.077112
H    -2.208112  -2.386166  7.904872
H    -3.340300  -5.152957  6.034432
H    -2.159335  -5.039051  4.785155
O    2.037234  0.460860  2.725507
H    -0.041291  0.968607  -0.428317
Cd    3.842571  1.487961  1.794511
