28
Energy: -170630.687858 eV PBE+vdW (tier 2 basis)
N    0.454646  -0.024974  0.050508
C    -0.154925  -0.023874  1.421351
C    0.915999  0.326508  2.468008
O    2.147166  0.240828  2.287367
H    0.066134  -0.787705  -0.516983
H    0.239206  0.846491  -0.450069
H    -0.903695  0.782147  1.464346
C    -0.811582  -1.409877  1.714109
C    -1.756009  -1.547986  2.929549
C    -3.194383  -1.040507  2.712812
N    -4.038615  -1.463803  3.832823
C    -5.282100  -1.002470  4.116414
N    -5.855957  -1.370176  5.266534
N    -5.913068  -0.176830  3.279168
H    -0.008291  -2.155419  1.819691
H    -1.368699  -1.684093  0.803635
H    -1.327182  -1.083877  3.827641
H    -1.800891  -2.628389  3.135948
H    -3.590635  -1.449846  1.765976
H    -3.233113  0.058467  2.650613
H    -3.739454  -2.284985  4.353757
H    -5.328574  -1.800693  6.019979
H    -6.786243  0.268016  3.548436
H    -5.669900  -0.121496  2.297355
H    -6.842423  -1.199963  5.444595
O    0.407692  0.707729  3.605004
H    1.102984  0.917753  4.273292
Cd    2.751913  -0.201974  0.215140
