28
Energy: -170630.478741 eV PBE+vdW (tier 2 basis)
N    0.728850  0.294352  -0.003786
C    0.141615  -0.070430  1.324779
C    1.148538  -0.919379  2.154443
O    2.306309  -1.182099  1.772739
H    0.299874  -0.255780  -0.757187
H    0.553369  1.280927  -0.224049
H    0.049886  0.871390  1.894269
C    -1.260588  -0.738388  1.205940
C    -2.352910  0.216882  0.674585
C    -3.809031  -0.188815  0.974782
N    -4.309193  -1.305090  0.166292
C    -5.469749  -1.970511  0.427769
N    -5.809410  -2.999042  -0.354789
N    -6.237957  -1.628799  1.461753
H    -1.556616  -1.080403  2.209894
H    -1.180241  -1.654752  0.599466
H    -2.236978  0.392792  -0.407050
H    -2.231085  1.202519  1.149701
H    -4.431178  0.707870  0.808603
H    -3.908227  -0.463468  2.036093
H    -4.009167  -1.338727  -0.805321
H    -5.153039  -3.425854  -0.999974
H    -6.194546  -0.709924  1.887815
H    -7.023754  -2.210641  1.740498
H    -6.736245  -3.414482  -0.310487
O    0.817904  -1.362645  3.329537
H    -0.078809  -1.122784  3.639152
Cd    3.006379  -0.191717  -0.023467
