28
Energy: -170631.400053 eV PBE+vdW (tier 2 basis)
N    -0.534919  1.117082  1.787297
C    0.556369  0.360234  2.539357
C    1.898609  0.600870  1.801515
O    1.920774  1.448554  0.855247
H    -0.816190  0.628002  0.922920
H    -0.205422  2.054746  1.502518
H    0.662117  0.875483  3.508312
C    0.218874  -1.124149  2.747792
C    -0.986129  -1.392799  3.674592
C    -1.151979  -2.911958  3.941198
N    -2.367690  -3.234376  4.686328
C    -2.455162  -3.878308  5.878256
N    -3.585891  -4.517859  6.182326
N    -1.435356  -3.873450  6.741635
H    1.128065  -1.572641  3.174756
H    0.074385  -1.610034  1.768626
H    -1.921681  -1.024096  3.223431
H    -0.861259  -0.862652  4.631171
H    -0.286221  -3.310070  4.485128
H    -1.191430  -3.453439  2.983135
H    -3.243242  -3.159875  4.174103
H    -3.780332  -4.825853  7.130997
H    -4.263794  -4.781563  5.474037
H    -1.438908  -4.485722  7.551995
H    -0.705092  -3.173902  6.708313
O    2.922907  -0.021540  2.204990
H    -1.377190  1.237000  2.369324
Cd    4.170788  1.079314  0.687698
