28
Energy: -170630.511582 eV PBE+vdW (tier 2 basis)
N    2.136645  0.891054  2.362229
C    1.393226  -0.409264  2.270399
C    0.818448  -0.593288  0.846876
O    0.573493  0.357593  0.078900
H    1.960207  1.348850  3.264573
H    3.152304  0.737835  2.312370
H    2.122259  -1.219138  2.439417
C    0.272021  -0.466709  3.353682
C    -0.441615  -1.824675  3.530706
C    -1.398828  -1.793190  4.751590
N    -2.220180  -2.998365  4.852766
C    -2.357593  -3.814825  5.932249
N    -3.473894  -4.534646  6.051598
N    -1.396711  -3.906109  6.855404
H    -0.470391  0.320771  3.144318
H    0.765451  -0.200407  4.302152
H    0.292833  -2.633387  3.670689
H    -1.036141  -2.066378  2.636644
H    -2.075767  -0.927505  4.667599
H    -0.842683  -1.661091  5.687763
H    -2.928550  -3.120840  4.132428
H    -3.537687  -5.306190  6.710765
H    -1.565347  -4.390334  7.732844
H    -0.436471  -3.650268  6.662462
H    -4.323679  -4.303536  5.545723
O    0.515166  -1.785180  0.420589
H    0.793952  -2.518154  1.007082
Cd    1.497531  2.261380  0.612181
