17
Energy: -168062.16005 eV PBE+vdW (tier 2 basis)
N    0.567972  -0.225878  -0.033444
C    0.021809  0.086043  1.222029
C    1.186586  0.297188  2.216162
O    2.318268  -0.023865  2.019370
H    0.079640  -0.013828  -0.899427
H    1.509407  -0.617500  -0.090121
H    -0.612907  0.983583  1.162798
C    -0.904917  -1.143480  1.694379
C    -1.824799  -0.939842  2.887607
O    -2.840747  -1.682704  2.903320
O    -1.613231  -0.101174  3.847781
H    -0.272517  -2.020509  1.915188
H    -1.541782  -1.423460  0.847159
O    0.727536  0.892196  3.369888
H    1.479116  1.039123  3.986881
H    -0.721500  0.391317  3.768944
Cd    -4.396533  -1.609138  4.454151
