17
Energy: -168062.778373 eV PBE+vdW (tier 2 basis)
N    -0.186009  0.306941  -0.014349
C    -0.233068  -0.474045  1.281885
C    1.175645  -0.237750  1.898797
O    2.051946  0.251850  1.215856
H    -0.511019  1.266471  0.163824
H    0.842630  0.408513  -0.206579
H    -1.001140  -0.030881  1.929761
C    -0.463078  -2.005087  1.145201
C    -1.832934  -2.460184  0.671556
O    -2.329299  -2.131245  -0.441493
O    -2.566460  -3.261559  1.382395
H    -0.242792  -2.439772  2.129410
H    0.277498  -2.440194  0.450642
O    1.240136  -0.640017  3.153748
H    2.134281  -0.476008  3.529038
H    -2.173855  -3.533318  2.237892
Cd    -1.418480  -0.596717  -1.601585
