17
Energy: -168062.761875 eV PBE+vdW (tier 2 basis)
N    0.658683  -0.871557  -0.378766
C    0.015871  -0.305364  0.848095
C    1.084736  0.190474  1.880928
O    0.798304  0.353760  3.035740
H    1.318818  -0.185392  -0.770056
H    1.227795  -1.698554  -0.151219
H    -0.510958  0.612485  0.540368
C    -0.969546  -1.256352  1.554418
C    -2.312525  -1.470671  0.885411
O    -2.499805  -1.472515  -0.360096
O    -3.370513  -1.708812  1.601569
H    -1.116350  -0.848596  2.565929
H    -0.521822  -2.255066  1.709656
O    2.251676  0.427871  1.278544
H    2.901812  0.794674  1.918997
H    -3.232490  -1.661744  2.570843
Cd    -0.957152  -1.446728  -1.852769
