17
Energy: -168063.305023 eV PBE+vdW (tier 2 basis)
N    0.093478  0.548759  0.719013
C    -1.184917  -0.084462  1.251013
C    -0.920310  -0.586655  2.692488
O    -1.200269  -1.700228  3.054333
H    0.488881  1.183999  1.432267
H    0.790714  -0.188642  0.513744
H    -1.925526  0.727405  1.306510
C    -1.726598  -1.189073  0.350364
C    -0.893828  -2.467640  0.353049
O    0.382755  -2.388528  0.413380
O    -1.500046  -3.579063  0.244358
H    -1.811121  -0.856087  -0.697178
H    -2.740870  -1.446130  0.678018
O    -0.357314  0.395759  3.409733
H    -0.220017  0.111040  4.339130
H    -0.069360  1.093479  -0.140660
Cd    0.389346  -4.669933  0.319436
