17
Energy: -168061.883405 eV PBE+vdW (tier 2 basis)
N    -0.636983  0.226781  0.192658
C    -0.183899  -0.114199  1.453486
C    1.426917  0.273813  1.758765
O    1.990037  1.081179  1.001651
H    -0.493661  -0.392697  -0.601341
H    -0.796315  1.202898  -0.043330
H    -0.660462  0.536849  2.207015
C    -0.439258  -1.626828  1.750875
C    -0.711959  -1.954858  3.187777
O    -1.672990  -2.229016  3.791099
O    0.640612  -1.963171  3.977743
H    0.376006  -2.264001  1.378488
H    -1.360530  -1.908384  1.224849
O    1.980818  -0.218085  2.790349
H    1.297225  -1.221394  3.621293
H    0.498894  -1.989836  4.950469
Cd    3.945295  1.181335  2.115702
