17
Energy: -168063.373582 eV PBE+vdW (tier 2 basis)
N    -0.431491  -0.124189  0.603012
C    -0.201919  -0.098871  2.094805
C    1.251036  0.421981  2.238977
O    1.839631  0.859585  1.273231
H    -1.357443  0.219765  0.319948
H    0.330793  0.488367  0.213514
H    -0.854187  0.682091  2.515425
C    -0.535047  -1.406020  2.819448
C    0.225956  -2.650196  2.366138
O    0.460791  -3.554648  3.227113
O    0.562825  -2.777912  1.138092
H    -1.603098  -1.657406  2.702443
H    -0.369127  -1.269657  3.894870
O    1.677046  0.344773  3.490517
H    2.559987  0.766979  3.574661
H    -0.278890  -1.074371  0.225019
Cd    1.373135  -4.840272  1.698787
