17
Energy: -168063.352379 eV PBE+vdW (tier 2 basis)
N    0.117695  0.093048  0.091612
C    0.126198  -0.155029  1.570015
C    1.551798  -0.145733  2.162472
O    1.655899  -0.196992  3.427365
H    0.813178  -0.472541  -0.412876
H    0.270790  1.078611  -0.154085
H    -0.406736  0.685850  2.038715
C    -0.613221  -1.471406  1.886109
C    -1.967943  -1.539855  1.178597
O    -2.821128  -2.312302  1.807649
O    -2.195032  -0.950496  0.118787
H    -0.752146  -1.570292  2.969057
H    -0.033571  -2.348442  1.553636
O    2.550945  -0.085918  1.383027
H    -0.908514  -0.234348  -0.189484
H    -3.664112  -2.381124  1.305469
Cd    3.867902  -0.110031  3.228937
