17
Energy: -168063.359393 eV PBE+vdW (tier 2 basis)
N    0.634933  -0.400108  0.420621
C    0.437782  -0.421219  1.920241
C    0.650132  1.066984  2.328537
O    0.777079  1.911099  1.466464
H    -0.114235  -0.879663  -0.092172
H    0.647597  0.634912  0.192073
H    -0.620775  -0.653789  2.103847
C    1.340901  -1.392696  2.676298
C    1.042975  -2.880595  2.474339
O    1.515606  -3.687413  3.339797
O    0.365835  -3.275500  1.470350
H    1.256356  -1.189309  3.752522
H    2.407367  -1.246319  2.433542
O    0.629900  1.227429  3.638160
H    0.718637  2.178524  3.869485
H    1.533890  -0.799622  0.122377
Cd    0.641023  -5.393715  2.273516
