17
Energy: -168062.9019 eV PBE+vdW (tier 2 basis)
N    -0.608367  -0.037812  -0.009830
C    -0.219779  -0.100226  1.333441
C    1.377005  0.228386  1.482545
O    1.681011  1.409823  1.758336
H    -0.335861  -0.745933  -0.685751
H    -0.877727  0.857410  -0.409082
H    -0.695485  0.717371  1.887423
C    -0.592256  -1.415771  2.063674
C    -0.122044  -2.716002  1.480065
O    1.041398  -2.912407  0.992353
O    -0.968382  -3.684863  1.513716
H    -1.687343  -1.458431  2.137338
H    -0.213402  -1.387706  3.101231
O    2.228533  -0.684767  1.267401
H    1.636618  -2.062011  1.064375
H    -0.598612  -4.537735  1.182227
Cd    3.900079  1.135301  1.597626
