17
Energy: -168062.977218 eV PBE+vdW (tier 2 basis)
N    -0.224774  -0.094966  -0.099358
C    0.028144  0.130833  1.375493
C    1.568139  0.378674  1.443724
O    2.245395  -0.007853  0.513091
H    0.743067  -0.274477  -0.485759
H    -0.618366  0.737407  -0.559631
H    -0.545701  1.011334  1.693926
C    -0.391036  -1.059981  2.258904
C    0.371964  -2.365392  2.001318
O    0.890005  -2.963894  2.995477
O    0.442763  -2.822832  0.812350
H    -1.460857  -1.285265  2.120244
H    -0.261377  -0.788853  3.313021
O    2.088755  0.920908  2.529342
H    1.439787  1.288489  3.160320
H    -0.829673  -0.900539  -0.303154
Cd    1.595766  -4.578594  1.663690
