17
Energy: -168062.768567 eV PBE+vdW (tier 2 basis)
N    -0.441463  -1.517307  0.763819
C    -0.178527  -0.120063  1.293056
C    0.932154  -0.143571  2.365062
O    0.918597  0.528674  3.403049
H    -0.834996  -1.483826  -0.188068
H    0.405310  -2.103815  0.733212
H    0.221107  0.485109  0.463147
C    -1.494022  0.471289  1.816878
C    -2.012210  -0.408452  2.961689
O    -2.209359  0.092099  4.167499
O    -2.216650  -1.600993  2.739530
H    -2.248173  0.467532  1.015435
H    -1.348528  1.525036  2.079427
O    1.932169  -0.917884  2.015411
H    2.671673  -0.904372  2.665570
H    -1.177033  -1.941701  1.412842
Cd    -0.677048  1.255243  4.907443
