17
Energy: -168062.81315 eV PBE+vdW (tier 2 basis)
N    0.247435  -0.084280  0.319792
C    0.406140  -0.289110  1.814358
C    1.966473  -0.478472  1.956220
O    2.567582  -0.371923  3.106684
H    1.185731  -0.423360  -0.057974
H    -0.526210  -0.604959  -0.112838
H    0.065554  0.625688  2.316116
C    -0.437479  -1.506980  2.265238
C    -0.794222  -1.605022  3.744020
O    -0.287655  -0.929186  4.660998
O    -1.715347  -2.457793  4.104372
H    0.057720  -2.452779  1.983465
H    -1.398858  -1.492754  1.725478
O    2.578951  -0.722381  0.927071
H    0.141397  0.908260  0.067858
H    -2.139766  -2.954193  3.374563
Cd    1.712556  -0.162753  4.982579
