17
Energy: -168063.670747 eV PBE+vdW (tier 2 basis)
N    -0.775745  0.712671  0.565500
C    -0.240242  -0.133845  1.670551
C    1.215627  -0.532616  1.342690
O    1.662145  -0.625048  0.187411
H    -1.794388  0.809523  0.636490
H    -0.392846  1.663965  0.617806
H    -0.196609  0.446863  2.604884
C    -1.125518  -1.375010  1.961208
C    -1.399292  -2.365348  0.833666
O    -1.079759  -2.208097  -0.362241
O    -2.040318  -3.467871  1.115821
H    -2.103021  -1.025176  2.336174
H    -0.676166  -1.921330  2.805772
O    1.915169  -0.772572  2.415650
H    2.838448  -1.047929  2.207922
H    -2.276950  -3.584663  2.058837
Cd    -0.053534  -0.498516  -1.250142
