17
Energy: -168063.358742 eV PBE+vdW (tier 2 basis)
N    1.760704  0.746532  0.405918
C    1.019415  -0.321081  1.182899
C    0.517550  0.442580  2.433916
O    0.626929  1.648237  2.497150
H    2.784837  0.664543  0.471106
H    1.502385  0.781763  -0.588440
H    0.142432  -0.613797  0.588090
C    1.899401  -1.546648  1.471365
C    1.113468  -2.788878  1.888894
O    1.697660  -3.619216  2.658868
O    -0.052933  -2.989676  1.419154
H    2.660119  -1.345961  2.236572
H    2.427347  -1.859325  0.554049
O    -0.016326  -0.367278  3.339503
H    -0.340410  0.164573  4.099447
H    1.479178  1.644891  0.891152
Cd    -0.054755  -4.954258  2.503357
