27
Energy: -605743.282753 eV PBE+vdW (tier 2 basis)
C    -0.766257  0.778501  -0.169761
C    -0.386519  0.100457  1.102552
O    0.866787  -0.139093  1.331671
H    -0.580949  1.862921  -0.107127
H    -1.808985  0.610037  -0.455152
H    -0.106177  0.397455  -0.960607
N    -1.297772  -0.229354  2.021505
C    -2.429639  0.666390  2.307000
C    -1.827739  1.988841  2.848363
O    -0.573751  2.115813  3.097516
H    -3.020997  0.882854  1.407340
C    -3.238478  -0.114740  3.360933
C    -2.154739  -0.833237  4.175988
C    -1.082966  -1.192617  3.142678
H    -3.885343  -0.829261  2.835084
H    -3.882103  0.528927  3.970485
H    -2.538644  -1.723849  4.683964
H    -1.746394  -0.169850  4.950899
H    -1.209125  -2.201884  2.726754
H    -0.061173  -1.148189  3.543765
N    -2.647035  2.996680  3.063917
C    -2.252029  4.308801  3.593285
H    -3.633038  2.857834  2.848968
H    -1.604088  4.828384  2.877036
H    -1.722360  4.187072  4.544678
H    -3.157255  4.899445  3.754000
Pb    1.554769  1.272661  2.926266
