27
Energy: -605743.325674 eV PBE+vdW (tier 2 basis)
C    -1.144574  0.759207  -0.248051
C    -0.498680  0.191016  0.966192
O    0.787088  0.038144  0.988343
H    -2.225231  0.593810  -0.283239
H    -0.676711  0.285553  -1.123258
H    -0.934393  1.836496  -0.336498
N    -1.204191  -0.144828  2.050308
C    -2.312406  0.693214  2.536734
C    -1.755480  2.112733  2.764185
O    -0.490641  2.331007  2.831541
H    -3.140465  0.724190  1.815381
C    -2.740711  0.017815  3.878339
C    -2.014155  -1.335697  3.875416
C    -0.718338  -1.041582  3.124473
H    -3.828972  -0.082630  3.938940
H    -2.416757  0.631906  4.729574
H    -2.592054  -2.092312  3.328659
H    -1.832158  -1.716818  4.885799
H    -0.222406  -1.912310  2.683144
H    -0.000114  -0.531535  3.797900
N    -2.624401  3.088359  2.931580
C    -2.320121  4.489756  3.236225
H    -3.612096  2.845048  2.860231
H    -1.244235  4.608179  3.375608
H    -2.847103  4.779336  4.153058
H    -2.663009  5.125688  2.410931
Pb    1.624313  1.522259  2.448485
