27
Energy: -605743.946909 eV PBE+vdW (tier 2 basis)
C    -0.259518  -0.720475  0.103871
C    -0.178235  -0.223167  1.509959
O    0.965040  0.187789  1.939426
H    -0.743539  0.034901  -0.535308
H    -0.842632  -1.646304  0.027098
H    0.750681  -0.888383  -0.278824
N    -1.261815  -0.184756  2.284461
C    -1.278351  0.389208  3.659847
C    -0.499392  -0.489176  4.659380
O    0.727598  -0.219689  4.923456
H    -0.748420  1.354455  3.634065
C    -2.776726  0.620581  3.960368
C    -3.447253  0.627045  2.580940
C    -2.652195  -0.417375  1.804603
H    -2.922414  1.547863  4.524176
H    -3.202553  -0.185417  4.574871
H    -3.352522  1.610434  2.101252
H    -4.513347  0.382330  2.632880
H    -2.706797  -0.295671  0.719755
H    -2.953188  -1.446279  2.054721
N    -1.098020  -1.501584  5.248628
C    -0.490237  -2.427073  6.209375
H    -2.085674  -1.640048  5.043121
H    0.506539  -2.072805  6.478180
H    -0.427205  -3.428624  5.765585
H    -1.121163  -2.472165  7.104531
Pb    2.321341  0.653384  3.617582
