27
Energy: -605743.732945 eV PBE+vdW (tier 2 basis)
C    0.392496  -0.897140  0.654910
C    -0.044920  0.202692  1.561858
O    0.729099  1.219392  1.716215
H    0.329480  -1.876232  1.149018
H    1.419455  -0.718297  0.327360
H    -0.259494  -0.941496  -0.231514
N    -1.227941  0.136758  2.178730
C    -1.771628  1.255235  2.976251
C    -0.955491  1.541375  4.256332
O    -0.202874  2.589073  4.258322
H    -1.655636  2.181777  2.393781
C    -3.277777  0.937958  3.123154
C    -3.447400  -0.551408  2.774901
C    -2.259989  -0.899394  1.876132
H    -3.818468  1.567378  2.406131
H    -3.668100  1.195753  4.113954
H    -4.395966  -0.730092  2.257743
H    -3.457153  -1.182612  3.668968
H    -2.515573  -0.828308  0.809378
H    -1.855075  -1.900629  2.064593
N    -0.989797  0.819026  5.358321
C    -1.731166  -0.402030  5.685799
H    -0.405571  1.198925  6.105935
H    -1.270870  -0.838568  6.576663
H    -1.662085  -1.128727  4.871728
H    -2.780826  -0.178079  5.911019
Pb    1.239273  3.169670  2.650324
