27
Energy: -605743.769955 eV PBE+vdW (tier 2 basis)
C    0.837413  -0.930444  3.764706
C    0.196281  -0.110015  2.696458
O    0.733789  1.017954  2.381943
H    0.100154  -1.403019  4.424332
H    1.511344  -0.300621  4.352184
H    1.439138  -1.731729  3.305984
N    -0.898263  -0.540627  2.067917
C    -1.511963  0.211222  0.948824
C    -2.018696  1.602751  1.363775
O    -1.379615  2.632625  0.920389
H    -0.724063  0.414919  0.205671
C    -2.541154  -0.761220  0.331491
C    -2.027552  -2.146025  0.757454
C    -1.458710  -1.919324  2.157396
H    -2.585655  -0.636034  -0.755324
H    -3.550270  -0.582876  0.717384
H    -1.235664  -2.492787  0.080302
H    -2.820115  -2.901718  0.753962
H    -0.670522  -2.629234  2.425314
H    -2.231436  -1.952293  2.939575
N    -3.074541  1.816553  2.123713
C    -3.995044  0.889302  2.788793
H    -3.284018  2.809177  2.252685
H    -4.287295  1.336908  3.744860
H    -4.897756  0.742258  2.181682
H    -3.515638  -0.070097  2.988052
Pb    0.828852  2.887392  1.177476
