21
Energy: -568332.216099 eV PBE+vdW (tier 2 basis)
N    -0.053496  -0.164854  0.120260
C    -0.128064  0.107784  1.499987
C    1.328236  0.337273  2.149090
O    1.554004  0.041957  3.293150
H    0.174125  0.588992  -0.526286
H    0.228208  -1.092823  -0.193803
H    -0.598585  1.097339  1.646992
C    -0.862657  -0.980460  2.310561
C    -2.345903  -0.957714  2.137348
N    -3.236559  -1.396266  3.112760
C    -3.120496  -0.500427  1.090350
C    -4.489338  -1.240955  2.662109
N    -4.436594  -0.683630  1.443828
H    -0.607692  -0.816888  3.367556
H    -0.454740  -1.968430  2.038333
H    -2.830444  -0.019889  0.162560
H    -5.401469  -1.522862  3.176811
H    -5.246348  -0.442629  0.873844
O    2.139053  0.903205  1.270013
H    3.011415  1.095743  1.681478
Hg    -2.795405  -2.520420  5.026587
