21
Energy: -568332.839444 eV PBE+vdW (tier 2 basis)
N    0.724455  -0.273633  0.183115
C    -0.144690  0.064866  1.378453
C    0.710513  0.052494  2.649382
O    0.351783  0.805949  3.574080
H    0.172755  -0.550424  -0.643343
H    1.312512  0.528218  -0.092284
H    -0.611625  1.039678  1.203983
C    -1.186950  -1.082201  1.598362
C    -1.976103  -1.077879  2.884571
N    -1.528886  -1.466897  4.158657
C    -3.328362  -0.862636  2.995015
C    -2.575551  -1.448549  4.990102
N    -3.672328  -1.094389  4.303315
H    -0.649890  -2.040930  1.518017
H    -1.918584  -1.046878  0.779182
H    -4.062027  -0.588599  2.245199
H    -2.563314  -1.693520  6.046175
H    -4.612795  -1.036534  4.691083
O    1.493417  -0.960507  2.729541
H    1.359408  -1.051529  0.439512
Hg    0.583848  -1.288936  4.853503
