21
Energy: -568332.905008 eV PBE+vdW (tier 2 basis)
N    0.859281  0.446688  0.428933
C    0.505911  0.019577  1.838422
C    1.803165  -0.543908  2.447171
O    1.704325  -0.746313  3.725002
H    1.684332  -0.133789  0.155452
H    1.154152  1.433754  0.398107
H    0.113427  0.885288  2.381884
C    -0.535829  -1.141164  1.898641
C    -0.156141  -2.524799  1.421941
N    0.670815  -3.454902  2.076039
C    -0.694633  -3.186914  0.343557
C    0.635459  -4.605396  1.397973
N    -0.188345  -4.463716  0.349119
H    -1.435654  -0.838075  1.344143
H    -0.845733  -1.186302  2.953113
H    -1.418123  -2.860193  -0.395192
H    1.166954  -5.517241  1.646643
H    -0.422404  -5.201401  -0.313993
O    2.660496  -0.965759  1.666729
H    0.091507  0.328833  -0.244951
Hg    2.102035  -2.896268  3.660268
