21
Energy: -568332.390655 eV PBE+vdW (tier 2 basis)
N    0.303769  -0.028295  -0.228267
C    0.028042  0.130830  1.204512
C    1.258993  0.651013  2.013148
O    2.417484  0.454955  1.658827
H    -0.302949  -0.827824  -0.610169
H    0.111879  0.831583  -0.755404
H    -0.763993  0.894246  1.310024
C    -0.413372  -1.225067  1.833261
C    -1.581612  -1.819093  1.113062
N    -1.583449  -1.882740  -0.251531
C    -2.736918  -2.441298  1.605395
C    -2.703594  -2.512106  -0.607330
N    -3.407856  -2.873808  0.501158
H    -0.645270  -1.081488  2.896027
H    0.439875  -1.923910  1.795289
H    -3.089300  -2.623252  2.614955
H    -3.032902  -2.714241  -1.621791
H    -4.296662  -3.372457  0.501842
O    1.037287  1.261738  3.152066
H    0.093154  1.432556  3.342663
Hg    2.583820  -0.444015  -0.575973
