25
Energy: -243759.023597 eV PBE+vdW (tier 2 basis)
C    0.039961  0.311549  0.258021
C    -0.298338  0.294068  1.717240
O    0.515732  0.689662  2.584070
H    0.787143  -0.478260  0.089243
H    0.499044  1.266266  -0.017665
H    -0.818410  0.100985  -0.389010
N    -1.496866  -0.237507  2.122351
C    -2.801919  0.190086  1.608076
C    -2.712888  1.625332  1.043435
O    -1.859318  2.429856  1.488481
H    -1.523580  -0.348219  3.146056
H    -3.180532  -0.502028  0.843412
C    -3.805944  0.200127  2.815807
C    -3.208489  1.089809  3.910097
O    -2.271559  0.573303  4.625021
O    -3.460892  2.326605  3.920828
H    -3.925029  -0.830486  3.172337
H    -4.776743  0.585831  2.488270
N    -3.578126  1.994541  0.093572
C    -4.632373  1.196966  -0.530126
H    -3.509184  2.974228  -0.171536
H    -5.051180  1.776946  -1.357229
H    -5.443512  0.969003  0.173632
H    -4.235239  0.261679  -0.942958
Ba    -0.832340  2.580679  3.928797
