25
Energy: -243759.285598 eV PBE+vdW (tier 2 basis)
C    0.275013  -1.201605  0.281108
C    -0.151428  -0.305736  1.402919
O    0.697270  0.149914  2.231372
H    1.254675  -0.868660  -0.078524
H    -0.438744  -1.212673  -0.549313
H    0.387204  -2.225254  0.665602
N    -1.444473  0.011559  1.561184
C    -2.633980  -0.759988  1.229087
C    -3.795351  0.139389  1.748723
O    -3.545992  1.092414  2.488033
H    -1.700932  0.737041  2.252698
H    -2.735581  -0.885493  0.141371
C    -2.626861  -2.178446  1.906527
C    -1.746140  -2.152148  3.149562
O    -0.603203  -2.725794  3.097050
O    -2.085683  -1.429962  4.142665
H    -2.235695  -2.927787  1.210551
H    -3.651141  -2.458869  2.183707
N    -5.029238  -0.214418  1.340042
C    -6.239776  0.481427  1.758909
H    -5.124091  -0.992561  0.696493
H    -6.901107  -0.193340  2.317155
H    -6.777494  0.874648  0.887341
H    -5.946207  1.313276  2.405029
Ba    0.360953  -0.881934  4.521708
