25
Energy: -243759.058407 eV PBE+vdW (tier 2 basis)
C    0.458888  -0.528369  0.874884
C    -0.302047  0.502550  1.681749
O    0.176097  1.587328  1.963299
H    0.129767  -1.564008  1.017009
H    0.370634  -0.279287  -0.191687
H    1.518103  -0.442577  1.138480
N    -1.583656  0.187764  2.158788
C    -2.497469  -0.874487  1.762225
C    -2.193756  -2.217130  2.468456
O    -2.822425  -3.277799  2.195248
H    -2.010799  1.001453  2.596187
H    -3.481706  -0.593826  2.171684
C    -2.715197  -0.995413  0.230235
C    -3.818946  -1.985494  -0.077636
O    -3.556249  -3.003560  -0.802414
O    -4.939267  -1.872104  0.530713
H    -1.808591  -1.302522  -0.297837
H    -3.007023  0.001156  -0.128175
N    -1.281873  -2.181934  3.433377
C    -0.917278  -3.326363  4.256254
H    -0.862270  -1.269927  3.606798
H    -1.733702  -3.596291  4.939278
H    -0.687385  -4.191038  3.622930
H    -0.032630  -3.067054  4.844038
Ba    -4.742726  -4.326879  0.922874
