25
Energy: -243759.612282 eV PBE+vdW (tier 2 basis)
C    -1.737888  1.000438  1.098833
C    -1.494415  -0.029908  2.159014
O    -2.433296  -0.713423  2.633199
H    -2.539853  0.666551  0.433163
H    -0.842910  1.238494  0.513192
H    -2.068047  1.916998  1.610786
N    -0.219381  -0.180687  2.583738
C    0.182770  -0.881338  3.813053
C    -0.436626  -2.295182  3.863416
O    -1.350984  -2.610040  4.660935
H    0.443077  0.508262  2.239947
H    1.265381  -1.041303  3.703669
C    -0.019515  -0.041203  5.102718
C    -1.302076  0.812175  5.083990
O    -1.309206  1.866060  4.455095
O    -2.334430  0.289852  5.703424
H    0.828730  0.650160  5.177617
H    0.002384  -0.715737  5.966843
N    0.081285  -3.215926  3.037037
C    1.180684  -3.068373  2.086548
H    -0.336946  -4.137952  3.133214
H    0.980772  -2.264824  1.368265
H    1.278767  -4.006035  1.532342
H    2.134077  -2.875553  2.597552
Ba    -3.614352  -1.410508  4.786410
