25
Energy: -243759.149546 eV PBE+vdW (tier 2 basis)
C    0.480635  -1.524703  2.580320
C    -0.046787  -0.187785  3.003547
O    0.708550  0.802870  3.138760
H    1.171700  -1.415442  1.738420
H    1.051472  -1.931097  3.428559
H    -0.307999  -2.244385  2.335807
N    -1.376378  -0.062011  3.320658
C    -2.469008  -0.448284  2.422942
C    -1.975401  -0.472280  0.956747
O    -1.057637  0.290218  0.576545
H    -1.566435  0.850907  3.758485
H    -2.890137  -1.429208  2.693201
C    -3.597746  0.634331  2.552618
C    -2.972818  2.002684  2.269153
O    -2.276621  2.524923  3.217581
O    -2.945684  2.451202  1.089346
H    -3.997722  0.594524  3.573564
H    -4.398274  0.413458  1.838711
N    -2.596717  -1.326429  0.140493
C    -2.352519  -1.414377  -1.294704
H    -3.326429  -1.911131  0.536296
H    -2.355385  -2.465492  -1.602203
H    -3.124158  -0.870622  -1.855391
H    -1.375592  -0.974265  -1.511764
Ba    -0.354908  2.670395  1.529307
