25
Energy: -243759.020752 eV PBE+vdW (tier 2 basis)
C    0.461968  0.413566  0.711176
C    -0.155206  0.727115  2.034406
O    0.360967  1.594867  2.808872
H    -0.111169  0.900117  -0.091765
H    1.479500  0.813113  0.693933
H    0.455593  -0.666476  0.528320
N    -1.285625  0.113975  2.447151
C    -2.447432  -0.310966  1.652645
C    -2.178180  -1.622891  0.864739
O    -1.117552  -2.225274  0.974921
H    -1.537914  0.388280  3.393444
H    -3.202494  -0.558362  2.411004
C    -3.010162  0.861360  0.779283
C    -2.637155  2.204527  1.394501
O    -2.993090  2.474924  2.590994
O    -1.845171  2.969574  0.744035
H    -4.105202  0.785383  0.729654
H    -2.615874  0.822719  -0.241990
N    -3.217269  -2.033419  0.094314
C    -3.183957  -3.268169  -0.679229
H    -4.072503  -1.489870  0.083145
H    -3.969175  -3.957691  -0.344184
H    -3.319261  -3.060755  -1.748359
H    -2.207491  -3.735783  -0.523676
Ba    -0.838145  3.806137  2.885665
