25
Energy: -243759.604828 eV PBE+vdW (tier 2 basis)
C    -1.919608  2.492442  0.239765
C    -1.294064  2.005029  1.521038
O    -0.074443  2.086047  1.723422
H    -3.014984  2.517527  0.260578
H    -1.598846  1.828500  -0.574614
H    -1.534185  3.492756  0.012942
N    -2.150151  1.475624  2.447959
C    -1.796051  0.698307  3.636729
C    -1.020225  1.436721  4.747218
O    -1.275604  1.143695  5.958608
H    -3.132311  1.453479  2.198319
H    -2.751101  0.435892  4.107931
C    -1.083387  -0.647564  3.287302
C    -0.920074  -1.422815  4.581279
O    0.211332  -1.427818  5.171195
O    -1.974168  -1.875146  5.151096
H    -0.111251  -0.463734  2.818932
H    -1.733663  -1.199659  2.597854
N    -0.081985  2.295662  4.398666
C    0.751176  3.011824  5.351785
H    0.113335  2.347865  3.372365
H    1.611515  2.400225  5.659450
H    0.165861  3.276626  6.238514
H    1.123864  3.924445  4.877053
Ba    -1.057983  -0.967930  7.285616
