25
Energy: -243759.561348 eV PBE+vdW (tier 2 basis)
C    0.624603  -1.542166  1.458764
C    0.319917  -0.102569  1.739508
O    1.067934  0.817249  1.333643
H    -0.202174  -2.217037  1.705176
H    0.926916  -1.673635  0.415029
H    1.481071  -1.820666  2.090991
N    -0.762119  0.213766  2.523029
C    -2.129528  -0.238762  2.249831
C    -2.283931  -0.608070  0.756118
O    -1.595131  -0.042066  -0.123487
H    -0.750589  1.211268  2.779676
H    -2.408281  -1.097512  2.880107
C    -3.098301  0.954025  2.569745
C    -2.638438  2.164053  1.752712
O    -1.612054  2.801542  2.195992
O    -3.095771  2.350052  0.590574
H    -3.040827  1.166538  3.644612
H    -4.123369  0.671006  2.308290
N    -3.201116  -1.530791  0.461705
C    -3.555406  -1.900314  -0.905672
H    -3.720311  -1.950999  1.225477
H    -4.154833  -2.814320  -0.878567
H    -2.646178  -2.081388  -1.489163
H    -4.133514  -1.101354  -1.387869
Ba    -0.551571  2.403152  -0.102223
