25
Energy: -243759.512090 eV PBE+vdW (tier 2 basis)
C    0.566571  0.637205  0.837377
C    -0.086565  0.956216  2.160042
O    0.172670  1.942463  2.834837
H    0.054108  1.203592  0.046741
H    0.526392  -0.427939  0.578214
H    1.608087  0.972704  0.861147
N    -1.034088  0.034830  2.604228
C    -1.916407  0.406955  3.697623
C    -1.253383  0.233001  5.075665
O    -1.756624  0.765913  6.105530
H    -1.355558  -0.677835  1.956739
H    -2.124504  1.486058  3.629644
C    -3.258787  -0.358858  3.598708
C    -4.181371  0.111009  4.710515
O    -4.413675  -0.657442  5.699843
O    -4.548401  1.336670  4.709254
H    -3.108804  -1.442956  3.674823
H    -3.710650  -0.116429  2.627295
N    -0.146545  -0.493010  5.133154
C    0.629245  -0.705941  6.346768
H    0.207270  -0.825401  4.238980
H    1.456653  -1.383269  6.119366
H    0.004371  -1.155236  7.127678
H    1.034457  0.244414  6.717782
Ba    -3.966465  1.365288  7.126047
