25
Energy: -243759.326538 eV PBE+vdW (tier 2 basis)
C    0.399158  -0.728924  0.580694
C    -0.240979  0.009534  1.715387
O    0.449642  0.409461  2.704040
H    0.542739  -1.778324  0.874265
H    1.387449  -0.294066  0.395281
H    -0.195725  -0.697236  -0.338015
N    -1.561402  0.241751  1.713287
C    -2.639449  -0.543553  1.129020
C    -3.918369  0.231987  1.566139
O    -3.836979  1.106553  2.429717
H    -1.960059  0.870890  2.431485
H    -2.579387  -0.546644  0.030997
C    -2.633452  -2.029032  1.642958
C    -1.945189  -2.101497  3.000233
O    -0.771081  -2.607574  3.060199
O    -2.471463  -1.515315  4.001550
H    -2.094709  -2.670473  0.937734
H    -3.665288  -2.392873  1.729619
N    -5.058117  -0.135281  0.949061
C    -6.356708  0.452556  1.254455
H    -5.010707  -0.834082  0.215536
H    -6.223048  1.160870  2.076638
H    -7.068580  -0.324967  1.557947
H    -6.755081  0.986233  0.382285
Ba    -0.146218  -0.889993  4.797485
