25
Energy: -243759.774655 eV PBE+vdW (tier 2 basis)
C    -0.212249  0.064189  -0.090262
C    0.017559  -0.440606  1.312698
O    1.076117  -1.032115  1.586435
H    -0.283228  -0.803430  -0.759740
H    0.661192  0.648081  -0.403325
H    -1.114312  0.674686  -0.207152
N    -0.995638  -0.193091  2.186032
C    -1.259916  -0.557373  3.593118
C    -0.153885  -0.092472  4.562231
O    1.061538  -0.251087  4.323035
H    -1.774523  0.296740  1.761429
H    -2.158179  0.027047  3.825946
C    -1.666848  -2.046174  3.831108
C    -0.450159  -2.962750  3.849417
O    -0.055217  -3.478229  2.758591
O    0.239313  -2.997311  4.921798
H    -2.368292  -2.336780  3.039818
H    -2.177405  -2.104174  4.801165
N    -0.552021  0.484635  5.707192
C    -1.907144  0.753971  6.180016
H    0.216695  0.710913  6.333525
H    -2.484229  -0.169822  6.317375
H    -2.446218  1.430027  5.503215
H    -1.833535  1.249785  7.152113
Ba    2.206584  -2.426660  3.380218
