25
Energy: -243759.604420 eV PBE+vdW (tier 2 basis)
C    -1.281594  -0.393876  -0.550541
C    -0.784664  -0.309022  0.869190
O    0.420612  -0.283731  1.151774
H    -2.369001  -0.506716  -0.628085
H    -0.984655  0.523143  -1.076409
H    -0.786116  -1.230791  -1.056281
N    -1.738992  -0.241265  1.847492
C    -1.358865  -0.038688  3.240983
C    -0.932526  -1.397066  3.853905
O    -1.696113  -2.126790  4.554723
H    -2.725834  -0.387927  1.650917
H    -0.456438  0.588996  3.219550
C    -2.439180  0.717968  4.028755
C    -3.657818  -0.135728  4.313036
O    -4.162416  -0.835333  3.362914
O    -4.050277  -0.280392  5.517445
H    -2.729136  1.599310  3.438474
H    -2.031573  1.075793  4.980540
N    0.304544  -1.760726  3.537901
C    0.903161  -3.033002  3.911749
H    0.752193  -1.178415  2.810784
H    0.584256  -3.838808  3.235065
H    1.991660  -2.938035  3.857617
H    0.614189  -3.293808  4.934967
Ba    -4.074415  -2.711093  5.060536
