25
Energy: -243759.256678 eV PBE+vdW (tier 2 basis)
C    0.500123  0.419661  0.039685
C    0.280868  -0.086655  1.443988
O    1.168968  -0.562570  2.147355
H    -0.425871  0.516665  -0.539682
H    1.191957  -0.251008  -0.480608
H    0.979949  1.406693  0.094659
N    -1.003158  0.001459  1.935881
C    -1.226439  -0.256966  3.343542
C    -0.778403  -1.646963  3.826577
O    -0.346081  -1.738931  5.016456
H    -1.724094  0.475277  1.403458
H    -0.597579  0.422723  3.939196
C    -2.701339  0.009367  3.741821
C    -2.792660  -0.136703  5.254077
O    -3.263186  -1.209890  5.752305
O    -2.199816  0.739071  5.974058
H    -3.389407  -0.688666  3.250385
H    -2.951129  1.040503  3.457710
N    -0.918980  -2.757040  3.103718
C    -1.407230  -2.949211  1.741442
H    -0.547102  -3.581213  3.570266
H    -1.736310  -3.989191  1.648320
H    -0.616173  -2.760551  1.003856
H    -2.260454  -2.300122  1.532204
Ba    -1.238451  -1.157738  7.273334
