25
Energy: -243759.694154 eV PBE+vdW (tier 2 basis)
C    1.089029  -1.849179  1.852386
C    -0.105599  -0.950202  1.946502
O    -0.810553  -0.907553  2.984128
H    1.806580  -1.536472  1.085766
H    0.717755  -2.850943  1.588321
H    1.587044  -1.909511  2.825173
N    -0.391838  -0.194741  0.862881
C    -1.671445  0.494362  0.629998
C    -2.056798  1.359150  1.856302
O    -3.001832  1.080833  2.627365
H    0.151213  -0.397198  0.028723
H    -1.462319  1.211519  -0.177340
C    -2.799583  -0.441491  0.119670
C    -2.782536  -1.834736  0.776872
O    -1.979230  -2.673394  0.380883
O    -3.608068  -1.990024  1.785809
H    -2.642439  -0.587463  -0.955946
H    -3.763272  0.060591  0.266626
N    -1.328371  2.471739  2.010558
C    -1.520531  3.421326  3.099637
H    -0.569557  2.640469  1.358655
H    -0.951939  3.124501  3.991960
H    -2.583971  3.469791  3.352836
H    -1.181583  4.409802  2.775114
Ba    -3.180161  -1.145176  3.899121
