25
Energy: -243759.839459 eV PBE+vdW (tier 2 basis)
C    0.592898  0.859927  -0.295132
C    0.072484  -0.375447  0.394842
O    0.505721  -1.497489  0.072290
H    1.682513  0.787550  -0.382882
H    0.178688  0.879871  -1.312873
H    0.330202  1.797794  0.206779
N    -0.865523  -0.148806  1.351768
C    -1.709654  -1.041466  2.173523
C    -0.916659  -2.190238  2.835200
O    -0.416485  -3.139070  2.202105
H    -1.109217  0.829721  1.458536
H    -2.046455  -0.385825  2.988450
C    -3.016063  -1.528249  1.477009
C    -2.738458  -2.526793  0.361371
O    -2.823558  -3.769210  0.615070
O    -2.233411  -2.078088  -0.719334
H    -3.524091  -0.642989  1.072388
H    -3.656220  -1.988009  2.240388
N    -0.831885  -2.126471  4.172989
C    -0.176774  -3.157559  4.970716
H    -1.232929  -1.329482  4.652341
H    0.910499  -3.138074  4.820892
H    -0.553016  -4.146858  4.685724
H    -0.397984  -2.976863  6.026236
Ba    -0.434626  -3.848880  -0.312396
