25
Energy: -243759.596085 eV PBE+vdW (tier 2 basis)
C    0.494126  -1.538018  0.988542
C    0.347550  -0.106686  1.405562
O    1.084948  0.791762  0.937237
H    -0.326225  -2.176768  1.333051
H    0.604749  -1.611504  -0.097967
H    1.422647  -1.914030  1.443754
N    -0.565062  0.218521  2.378170
C    -1.988080  -0.126608  2.311643
C    -2.412626  -0.376655  0.844931
O    -1.837334  0.212574  -0.098466
H    -0.437894  1.191617  2.691178
H    -2.221755  -1.010282  2.925770
C    -2.801099  1.096889  2.864283
C    -2.392617  2.334341  2.061190
O    -3.019129  2.636886  1.007605
O    -1.262734  2.870544  2.365170
H    -2.553811  1.224031  3.925667
H    -3.873170  0.898752  2.761026
N    -3.427180  -1.225020  0.663444
C    -4.048610  -1.498338  -0.627164
H    -3.829254  -1.661840  1.487255
H    -4.991942  -0.945907  -0.729092
H    -4.246643  -2.571664  -0.719311
H    -3.362927  -1.185371  -1.418875
Ba    -0.626927  2.579776  -0.099603
