25
Energy: -243759.284128 eV PBE+vdW (tier 2 basis)
C    0.741122  -0.668730  0.533518
C    0.376549  0.116844  1.761651
O    1.274647  0.508270  2.555928
H    -0.124733  -0.967487  -0.066908
H    1.288824  -1.568783  0.841462
H    1.416798  -0.070953  -0.091418
N    -0.924077  0.371984  1.965273
C    -1.509899  0.974653  3.172468
C    -2.838382  0.254289  3.516930
O    -2.905518  -0.376940  4.562288
H    -1.570153  -0.022996  1.289097
H    -0.857844  0.711484  4.013418
C    -1.615630  2.523576  3.128568
C    -0.229584  3.096686  3.340010
O    0.449295  3.501437  2.337650
O    0.286640  3.001608  4.507913
H    -2.263918  2.836974  3.957600
H    -2.030209  2.882472  2.182159
N    -3.873483  0.287128  2.621038
C    -4.130578  1.199572  1.511394
H    -4.680696  -0.223317  2.972967
H    -4.872707  0.740284  0.849487
H    -4.521483  2.171550  1.847718
H    -3.231540  1.382634  0.911278
Ba    2.468557  2.506760  3.463510
