25
Energy: -243759.352666 eV PBE+vdW (tier 2 basis)
C    0.590697  -1.491134  1.198310
C    0.285118  -0.060920  1.522411
O    0.975514  0.877996  1.061850
H    -0.197162  -2.184961  1.510680
H    0.799279  -1.606182  0.129988
H    1.506284  -1.758521  1.746955
N    -0.727511  0.225435  2.404126
C    -2.104787  -0.252113  2.250036
C    -2.387009  -0.610331  0.771681
O    -1.790244  -0.020466  -0.157922
H    -0.711990  1.220205  2.670929
H    -2.308247  -1.122831  2.892659
C    -3.063609  0.916984  2.670898
C    -2.703091  2.145057  1.831218
O    -3.267182  2.334287  0.717560
O    -1.653337  2.798495  2.188144
H    -2.913393  1.118906  3.738829
H    -4.102542  0.616146  2.499473
N    -3.307340  -1.552826  0.557735
C    -3.790389  -1.933830  -0.765120
H    -3.744626  -1.980679  1.367853
H    -4.071207  -2.991571  -0.754640
H    -2.991032  -1.776951  -1.495048
H    -4.661219  -1.330049  -1.053361
Ba    -0.797978  2.445850  -0.201244
