25
Energy: -243759.267744 eV PBE+vdW (tier 2 basis)
C    0.380225  -1.038264  0.855572
C    0.213727  -0.007847  1.951300
O    1.137293  0.418719  2.620442
H    1.450335  -1.197064  0.701317
H    -0.073831  -1.996628  1.147345
H    -0.078962  -0.722544  -0.091696
N    -1.078797  0.485575  2.172010
C    -2.318428  -0.032288  1.627615
C    -2.771994  0.726631  0.358793
O    -3.736067  0.317217  -0.348655
H    -1.135224  1.058567  3.011998
H    -2.178926  -1.073708  1.302781
C    -3.415828  -0.043838  2.724755
C    -4.711661  -0.595821  2.163527
O    -5.700250  0.189774  1.983531
O    -4.719153  -1.796447  1.721364
H    -3.585993  0.966091  3.118434
H    -3.058848  -0.692860  3.535115
N    -2.079269  1.811497  0.039882
C    -2.349397  2.646329  -1.122304
H    -1.302461  2.029745  0.663269
H    -3.325691  3.138815  -1.028485
H    -1.570662  3.410150  -1.193570
H    -2.345533  2.041848  -2.037598
Ba    -5.945879  -0.897722  -0.248463
