33
Energy: -21829.3687492 eV PBE+vdW (tier 2 basis)
C    -2.622326  -1.465540  0.705588
C    -1.559522  -1.186791  1.747099
O    -0.371787  -1.492078  1.564625
H    -3.628582  -1.154566  1.011080
H    -2.628292  -2.539363  0.481534
H    -2.351656  -0.940694  -0.219321
N    -1.991551  -0.589051  2.886714
C    -1.119994  -0.128323  3.963213
C    -0.697249  -1.270613  4.936811
O    -0.897894  -1.215438  6.151094
H    -2.984398  -0.406811  3.008465
H    -0.189072  0.218666  3.486084
C    -1.775773  1.059981  4.700936
C    -3.263864  0.923307  4.935826
C    -4.178987  1.570661  4.090287
C    -3.780730  0.135944  5.976253
C    -5.556682  1.441680  4.260536
C    -5.154601  0.001135  6.160112
C    -6.049226  0.650973  5.301610
O    -7.409948  0.551559  5.435601
H    -1.593266  1.966538  4.107804
H    -1.249433  1.174273  5.656825
H    -3.804467  2.203655  3.283160
H    -3.087980  -0.383577  6.637669
H    -6.257549  1.954237  3.602923
H    -5.535536  -0.613729  6.979020
H    -7.606619  -0.013372  6.199800
N    -0.057834  -2.287537  4.309445
C    0.432076  -3.457509  5.009530
H    0.082680  -2.194510  3.297008
H    1.522848  -3.550093  4.908807
H    -0.033463  -4.374635  4.621248
H    0.182004  -3.350881  6.070327
