33
Energy: -21828.5486976 eV PBE+vdW (tier 2 basis)
C    0.065727  -0.025670  0.239338
C    -0.057845  -0.193842  1.733575
O    0.938062  -0.382848  2.434063
H    1.122448  -0.135239  -0.017536
H    -0.278040  0.966103  -0.081088
H    -0.520261  -0.774137  -0.306351
N    -1.289231  -0.124798  2.347539
C    -2.713575  -0.026569  1.997496
C    -3.520906  -1.269272  2.448506
O    -4.629275  -1.096611  2.960336
H    -1.154657  -0.233672  3.351354
H    -3.109254  0.740824  2.678294
C    -3.150737  0.466380  0.584866
C    -3.367177  -0.525553  -0.540395
C    -4.388865  -1.486503  -0.470588
C    -2.632475  -0.456751  -1.733161
C    -4.616651  -2.381532  -1.512959
C    -2.852161  -1.338629  -2.788568
C    -3.839037  -2.320590  -2.674496
O    -4.013154  -3.174444  -3.731340
H    -2.461619  1.258302  0.265201
H    -4.111254  0.969228  0.769483
H    -5.032492  -1.532709  0.407626
H    -1.875138  0.317217  -1.854852
H    -5.417895  -3.119303  -1.429638
H    -2.272437  -1.270457  -3.708037
H    -4.739411  -3.784192  -3.524986
N    -2.998017  -2.520675  2.309730
C    -1.847989  -2.981130  1.541525
H    -3.630478  -3.230180  2.666842
H    -1.968531  -4.056162  1.368533
H    -0.898979  -2.820869  2.069339
H    -1.803277  -2.497512  0.558056
