33
Energy: -21829.0879155 eV PBE+vdW (tier 2 basis)
C    0.363781  -0.496735  0.881867
C    -0.105896  -0.353480  2.321370
O    0.681551  -0.391865  3.264566
H    1.455065  -0.557556  0.889467
H    0.056205  0.359960  0.265337
H    -0.037277  -1.404947  0.410640
N    -1.445966  -0.164056  2.527544
C    -2.521344  -0.164513  1.564541
C    -3.675979  0.645260  2.191966
O    -3.718840  0.890380  3.394117
H    -1.740260  0.003228  3.490578
H    -2.196835  0.339953  0.639785
C    -3.010115  -1.600997  1.179395
C    -3.626496  -2.364362  2.321324
C    -5.016559  -2.395542  2.501745
C    -2.828656  -3.023402  3.265622
C    -5.598618  -3.052321  3.581339
C    -3.395465  -3.682565  4.354346
C    -4.784419  -3.696751  4.517366
O    -5.401464  -4.329421  5.565055
H    -2.143068  -2.145103  0.778887
H    -3.730674  -1.516320  0.351770
H    -5.661661  -1.891169  1.779990
H    -1.743764  -3.018540  3.157088
H    -6.679455  -3.074730  3.713507
H    -2.754167  -4.187889  5.079687
H    -4.721431  -4.716100  6.139305
N    -4.657509  1.024958  1.331547
C    -5.856989  1.701991  1.797272
H    -4.561458  0.818452  0.345721
H    -6.517885  1.878650  0.942617
H    -5.610217  2.664308  2.265303
H    -6.384164  1.089804  2.541431
