33
Energy: -21829.0246432 eV PBE+vdW (tier 2 basis)
C    -1.248958  0.884108  -1.012363
C    -0.630802  0.443507  0.299070
O    0.562534  0.173811  0.409292
H    -1.782957  1.838715  -0.912078
H    -1.959022  0.133770  -1.386497
H    -0.438984  0.998543  -1.737163
N    -1.457131  0.354227  1.398303
C    -2.900461  0.515389  1.476125
C    -3.240101  1.542720  2.577770
O    -3.446731  2.720271  2.302331
H    -0.964845  0.050777  2.235160
H    -3.231063  1.000661  0.551956
C    -3.643390  -0.843043  1.600693
C    -3.512817  -1.665297  0.345267
C    -2.418500  -2.517750  0.139664
C    -4.439261  -1.525511  -0.695665
C    -2.242670  -3.199238  -1.060842
C    -4.280505  -2.203788  -1.902740
C    -3.175770  -3.042096  -2.090401
O    -2.960011  -3.735203  -3.251939
H    -4.703559  -0.641390  1.815135
H    -3.243112  -1.410681  2.457236
H    -1.675502  -2.640941  0.928255
H    -5.301398  -0.868667  -0.566319
H    -1.386103  -3.853473  -1.215822
H    -5.017581  -2.082991  -2.699560
H    -3.675561  -3.533535  -3.875644
N    -3.244970  1.056107  3.854990
C    -3.496186  1.895398  5.012484
H    -3.146341  0.057615  3.994075
H    -4.458266  1.652839  5.486253
H    -3.526832  2.933287  4.665208
H    -2.695144  1.786860  5.755767
