33
Energy: -21829.0351943 eV PBE+vdW (tier 2 basis)
C    -0.032358  0.510312  -0.036135
C    0.250263  0.037480  1.375179
O    1.391088  -0.132110  1.799045
H    -0.687926  1.391368  -0.049683
H    -0.512771  -0.280436  -0.628774
H    0.925089  0.766061  -0.497040
N    -0.828337  -0.197172  2.200026
C    -2.245962  -0.202339  1.874577
C    -2.999390  0.702660  2.873598
O    -3.256340  1.870334  2.598951
H    -0.551429  -0.514522  3.126037
H    -2.368161  0.306659  0.912822
C    -2.816127  -1.640868  1.735863
C    -2.226614  -2.358158  0.549765
C    -1.021176  -3.063051  0.650600
C    -2.821313  -2.252674  -0.716283
C    -0.419573  -3.631172  -0.470901
C    -2.236617  -2.817641  -1.845345
C    -1.024788  -3.506759  -1.725528
O    -0.485285  -4.039629  -2.866065
H    -3.909864  -1.574025  1.636820
H    -2.609488  -2.215111  2.654457
H    -0.527346  -3.157101  1.618165
H    -3.761697  -1.708911  -0.824088
H    0.525841  -4.167942  -0.369324
H    -2.704506  -2.733773  -2.825228
H    0.352432  -4.475570  -2.642241
N    -3.304427  0.126971  4.075118
C    -3.967277  0.850614  5.144795
H    -3.134859  -0.864448  4.194837
H    -4.990627  0.483059  5.307956
H    -4.015005  1.903658  4.848885
H    -3.403447  0.764239  6.083141
