33
Energy: -21829.1355788 eV PBE+vdW (tier 2 basis)
C    1.778720  -0.170747  1.468530
C    0.959706  -0.549286  2.686602
O    1.315928  -1.430061  3.468883
H    1.352494  0.658977  0.891551
H    1.874203  -1.048695  0.817159
H    2.788805  0.102336  1.797282
N    -0.219222  0.134048  2.832031
C    -1.027865  0.049028  4.038351
C    -2.496019  -0.315802  3.718771
O    -3.439459  0.390939  4.076541
H    -0.378458  0.942070  2.238435
H    -0.591445  -0.782793  4.613871
C    -0.915930  1.339342  4.890447
C    -0.926523  2.624952  4.095564
C    -2.120577  3.244573  3.699613
C    0.280736  3.225409  3.704491
C    -2.107759  4.415848  2.944104
C    0.309535  4.393858  2.946068
C    -0.892579  4.994511  2.562348
O    -0.819782  6.145302  1.818910
H    0.029377  1.274039  5.446668
H    -1.734976  1.330763  5.620047
H    -3.069615  2.788328  3.978121
H    1.224948  2.769516  4.008476
H    -3.050352  4.884016  2.650476
H    1.252208  4.855049  2.654103
H    -1.721531  6.456081  1.640077
N    -2.714679  -1.478832  3.039585
C    -1.767974  -2.488097  2.593069
H    -3.699386  -1.636000  2.847577
H    -0.886080  -2.523843  3.242431
H    -1.423361  -2.308249  1.562942
H    -2.254089  -3.470578  2.630875
