33
Energy: -21828.9796534 eV PBE+vdW (tier 2 basis)
C    -1.189791  -0.656074  2.278356
C    -2.596598  -0.967734  2.740285
O    -2.951878  -2.114307  3.003949
H    -0.628218  -0.151010  3.076559
H    -1.191777  -0.019734  1.386125
H    -0.698481  -1.607788  2.058684
N    -3.504924  0.062101  2.918792
C    -3.505216  1.476054  2.559126
C    -3.645255  1.713894  1.036564
O    -2.904734  1.178132  0.215720
H    -4.410234  -0.314098  3.185835
H    -4.402219  1.882128  3.051448
C    -2.304884  2.293560  3.105283
C    -2.504271  3.774683  2.900015
C    -1.960710  4.426473  1.786235
C    -3.300387  4.528472  3.775213
C    -2.204017  5.778246  1.547167
C    -3.553293  5.879315  3.552315
C    -3.004565  6.510000  2.430520
O    -3.281404  7.840433  2.254675
H    -1.384580  1.973728  2.603428
H    -2.200646  2.054041  4.173210
H    -1.344415  3.863290  1.083977
H    -3.728266  4.050544  4.658962
H    -1.766117  6.266196  0.673494
H    -4.163535  6.461121  4.241882
H    -2.824613  8.153273  1.457632
N    -4.639222  2.583910  0.695754
C    -4.792278  3.088899  -0.655931
H    -5.101261  3.084652  1.446157
H    -5.854928  3.175864  -0.913180
H    -4.311055  2.379213  -1.336435
H    -4.311115  4.072123  -0.775437
