33
Energy: -21828.9049002 eV PBE+vdW (tier 2 basis)
C    -0.633590  1.239834  -0.110071
C    -0.329961  1.130772  1.374835
O    0.589996  1.768579  1.887691
H    -1.622418  0.857963  -0.393820
H    0.128478  0.671529  -0.660904
H    -0.548546  2.289143  -0.412176
N    -1.149143  0.271742  2.056878
C    -1.050703  -0.249509  3.424953
C    -2.034300  0.355765  4.460433
O    -2.676370  -0.428911  5.162641
H    -1.863954  -0.176971  1.497289
H    -1.430381  -1.277717  3.358811
C    0.380493  -0.358787  4.004517
C    1.239935  -1.350444  3.255051
C    1.018214  -2.729746  3.389160
C    2.269211  -0.932696  2.404643
C    1.785961  -3.663286  2.700002
C    3.049525  -1.856279  1.708215
C    2.808360  -3.225417  1.851791
O    3.540105  -4.182151  1.193723
H    0.251075  -0.693600  5.044430
H    0.863840  0.622935  4.028790
H    0.231230  -3.086013  4.057463
H    2.456589  0.133204  2.277387
H    1.612723  -4.732501  2.815320
H    3.850785  -1.508408  1.051880
H    4.217305  -3.739465  0.658010
N    -2.167505  1.700873  4.619105
C    -1.517886  2.810798  3.943284
H    -2.864414  1.925595  5.323634
H    -1.388197  3.633356  4.657438
H    -2.112149  3.181134  3.092686
H    -0.529713  2.529082  3.566084
