33
Energy: -21828.8429615 eV PBE+vdW (tier 2 basis)
C    -0.330105  0.455198  -0.133673
C    -0.410356  -0.157937  1.255229
O    0.475616  -0.902007  1.676122
H    -0.277652  -0.356802  -0.869569
H    0.603675  1.025674  -0.209934
H    -1.171803  1.111063  -0.387815
N    -1.531273  0.180728  1.962218
C    -1.955073  -0.238763  3.305157
C    -1.665904  0.851673  4.376339
O    -2.612313  1.533192  4.775698
H    -2.150258  0.851021  1.521634
H    -3.052077  -0.198450  3.273547
C    -1.587789  -1.689574  3.688354
C    -2.255682  -2.096120  4.980454
C    -1.548354  -2.101393  6.189714
C    -3.609063  -2.453709  5.016824
C    -2.158451  -2.443912  7.393312
C    -4.236991  -2.799830  6.211084
C    -3.511512  -2.792180  7.407204
O    -4.070640  -3.122059  8.615247
H    -0.505872  -1.828728  3.756613
H    -1.925351  -2.335723  2.864202
H    -0.490650  -1.835261  6.191163
H    -4.189922  -2.467719  4.092510
H    -1.600088  -2.446970  8.328448
H    -5.293093  -3.078585  6.214114
H    -5.008707  -3.328531  8.477856
N    -0.406690  1.070777  4.847398
C    0.861178  0.425010  4.553138
H    -0.400847  1.801521  5.554023
H    1.168330  -0.255165  5.363770
H    1.641374  1.189268  4.436725
H    0.812044  -0.141295  3.617541
