33
Energy: -21829.0202636 eV PBE+vdW (tier 2 basis)
C    0.014890  -0.407311  0.836012
C    -0.417513  -0.429739  2.288072
O    0.265854  -0.950595  3.164409
H    0.713891  -1.233775  0.679171
H    0.547001  0.532274  0.631249
H    -0.813904  -0.480798  0.122391
N    -1.627445  0.157144  2.615475
C    -2.500264  0.988875  1.784953
C    -3.199048  0.182970  0.655162
O    -3.507293  0.700366  -0.416049
H    -1.763825  0.206426  3.621362
H    -3.322703  1.284251  2.454662
C    -1.856579  2.301151  1.251686
C    -2.743519  3.513294  1.412165
C    -2.583821  4.370853  2.510276
C    -3.765109  3.802119  0.497541
C    -3.407781  5.477521  2.701020
C    -4.596581  4.906582  0.674678
C    -4.421885  5.748246  1.778311
O    -5.208810  6.849598  2.003407
H    -1.592472  2.164881  0.195301
H    -0.927409  2.463765  1.813574
H    -1.788362  4.175258  3.232209
H    -3.914290  3.141158  -0.355958
H    -3.272452  6.142376  3.553154
H    -5.385711  5.116354  -0.051339
H    -5.858103  6.918093  1.285538
N    -3.481964  -1.106363  0.981614
C    -4.156095  -2.017571  0.078301
H    -3.101673  -1.453411  1.855752
H    -5.040510  -2.460313  0.555904
H    -3.487734  -2.827342  -0.248293
H    -4.471996  -1.444417  -0.799655
