33
Energy: -21829.0364006 eV PBE+vdW (tier 2 basis)
C    -0.334101  1.522548  -0.492694
C    0.222980  0.961585  0.802630
O    1.400325  1.102720  1.125542
H    0.474843  2.051661  -1.002612
H    -1.161195  2.221692  -0.307108
H    -0.711346  0.728972  -1.152871
N    -0.649772  0.295033  1.629882
C    -2.023094  -0.101030  1.350017
C    -2.908238  0.008349  2.607572
O    -3.940606  0.673520  2.593979
H    -0.205854  -0.049104  2.476715
H    -2.457959  0.637397  0.667794
C    -2.140816  -1.494363  0.652358
C    -1.591226  -2.661705  1.431034
C    -0.209534  -2.909170  1.504278
C    -2.443842  -3.520057  2.139779
C    0.303527  -3.956527  2.265007
C    -1.946297  -4.576619  2.901033
C    -0.565814  -4.796096  2.969208
O    -0.011004  -5.813882  3.697677
H    -1.620083  -1.411318  -0.313172
H    -3.204124  -1.659005  0.425667
H    0.482848  -2.271941  0.953089
H    -3.521854  -3.355872  2.100360
H    1.375631  -4.141664  2.314095
H    -2.632802  -5.234427  3.438493
H    -0.721329  -6.325451  4.116754
N    -2.458190  -0.661368  3.710285
C    -3.224979  -0.712396  4.941978
H    -1.745761  -1.372297  3.574090
H    -2.550891  -0.686617  5.806716
H    -3.846176  -1.619824  4.999892
H    -3.885910  0.159547  4.967804
