33
Energy: -21829.3099461 eV PBE+vdW (tier 2 basis)
C    -3.607656  -1.825628  0.733940
C    -2.283480  -1.508753  1.403797
O    -1.209760  -1.621150  0.821988
H    -3.560059  -2.836576  0.311697
H    -3.750801  -1.130399  -0.103244
H    -4.471720  -1.755091  1.406395
N    -2.377617  -1.107410  2.718935
C    -1.244177  -0.558071  3.445616
C    -0.769153  -1.433642  4.626997
O    0.042620  -0.999977  5.443920
H    -3.299379  -0.878211  3.082631
H    -0.406573  -0.553322  2.730113
C    -1.518817  0.892674  3.909130
C    -2.806445  1.036989  4.683140
C    -3.990338  1.442197  4.046894
C    -2.874745  0.727502  6.050087
C    -5.200806  1.529410  4.732729
C    -4.076609  0.811995  6.749472
C    -5.246527  1.209888  6.092226
O    -6.456771  1.311423  6.728358
H    -1.544927  1.533192  3.017028
H    -0.660199  1.200079  4.519115
H    -3.961871  1.713621  2.989543
H    -1.970159  0.417174  6.573696
H    -6.111948  1.853957  4.231743
H    -4.104636  0.573020  7.815155
H    -6.338178  1.079211  7.663106
N    -1.286309  -2.688335  4.663653
C    -0.887629  -3.674572  5.646191
H    -1.930109  -2.939219  3.921536
H    -1.757167  -4.054884  6.199958
H    -0.202443  -3.185393  6.347044
H    -0.368613  -4.521699  5.175412
