33
Energy: -21829.2186978 eV PBE+vdW (tier 2 basis)
C    -0.554244  -1.685585  1.740743
C    -0.987443  -0.807233  2.895749
O    -0.191316  -0.351544  3.710756
H    -0.849727  -2.728566  1.923555
H    0.535693  -1.635751  1.673833
H    -0.992367  -1.373382  0.783348
N    -2.334030  -0.498084  3.000998
C    -3.456931  -1.167269  2.358067
C    -4.498906  -0.180116  1.777720
O    -5.608598  -0.571430  1.423554
H    -2.535440  -0.037763  3.888061
H    -3.062598  -1.704960  1.483861
C    -4.139583  -2.206297  3.279993
C    -3.239522  -3.380364  3.558957
C    -3.209848  -4.478519  2.685611
C    -2.341022  -3.377075  4.632467
C    -2.314274  -5.528658  2.863008
C    -1.434356  -4.419025  4.823753
C    -1.415554  -5.498169  3.935130
O    -0.549047  -6.552206  4.064815
H    -5.065861  -2.521197  2.783137
H    -4.433984  -1.706385  4.216118
H    -3.903502  -4.510248  1.843300
H    -2.333435  -2.538867  5.330311
H    -2.300169  -6.379715  2.183349
H    -0.737966  -4.388940  5.664324
H    0.012954  -6.400491  4.841293
N    -4.070882  1.105729  1.667726
C    -4.880201  2.154811  1.080747
H    -3.117869  1.296712  1.960472
H    -4.983100  3.003926  1.769775
H    -5.871202  1.735304  0.876571
H    -4.446673  2.515357  0.136898
