33
Energy: -21829.1171447 eV PBE+vdW (tier 2 basis)
C    -0.141854  1.914879  4.008082
C    -0.701547  0.779220  3.175630
O    -0.042229  0.209191  2.309494
H    0.504983  2.536959  3.381124
H    0.476553  1.480452  4.806152
H    -0.916620  2.539097  4.471142
N    -1.996322  0.427284  3.469680
C    -2.592348  -0.810378  2.983165
C    -3.949530  -0.500459  2.317861
O    -5.015566  -0.731938  2.888614
H    -2.449724  0.884703  4.253343
H    -1.879783  -1.188318  2.237095
C    -2.755917  -1.854345  4.107302
C    -1.476402  -2.084598  4.870005
C    -0.428468  -2.844204  4.329309
C    -1.271117  -1.496173  6.122636
C    0.775293  -3.013515  5.004324
C    -0.069651  -1.652948  6.815266
C    0.959791  -2.413934  6.254494
O    2.164434  -2.611187  6.880755
H    -3.114430  -2.787410  3.648667
H    -3.558080  -1.522586  4.780610
H    -0.552104  -3.310536  3.350550
H    -2.070794  -0.907328  6.575835
H    1.583594  -3.604262  4.575710
H    0.063059  -1.189260  7.795471
H    2.150211  -2.151153  7.734910
N    -3.918042  0.048657  1.067908
C    -2.778460  0.556159  0.320487
H    -4.845105  0.290017  0.727997
H    -2.602653  1.626365  0.512986
H    -2.958497  0.417684  -0.752723
H    -1.860676  0.020866  0.584118
