33
Energy: -21828.6219982 eV PBE+vdW (tier 2 basis)
C    -0.453439  -1.321723  0.040432
C    -0.167242  -0.798469  1.435561
O    0.958412  -0.852411  1.926539
H    0.496672  -1.635486  -0.399273
H    -1.134069  -2.182786  0.075964
H    -0.906642  -0.556889  -0.604658
N    -1.211162  -0.275904  2.157336
C    -2.583167  0.019865  1.759686
C    -3.314500  -1.278134  1.305462
O    -3.349077  -2.215044  2.098665
H    -0.929639  0.020840  3.085978
H    -3.105303  0.218058  2.708098
C    -2.696363  1.330090  0.937370
C    -2.199455  2.519518  1.722337
C    -3.067982  3.249409  2.546531
C    -0.851766  2.898759  1.693665
C    -2.618416  4.318059  3.316688
C    -0.384498  3.965694  2.459180
C    -1.267924  4.679126  3.275712
O    -0.871995  5.738094  4.050071
H    -3.750529  1.490349  0.670975
H    -2.132232  1.247607  -0.000828
H    -4.125153  2.978858  2.586289
H    -0.146870  2.348513  1.069500
H    -3.300108  4.883499  3.950547
H    0.671375  4.242040  2.421843
H    0.081889  5.872158  3.932020
N    -3.970464  -1.385871  0.106237
C    -3.976738  -0.577254  -1.104300
H    -4.432714  -2.288492  0.044798
H    -4.576748  0.337425  -1.003748
H    -4.421596  -1.180334  -1.903140
H    -2.965622  -0.301333  -1.427917
