33
Energy: -21829.0569185 eV PBE+vdW (tier 2 basis)
C    -1.001881  0.254783  -0.816940
C    -0.486441  -0.252444  0.519180
O    0.634820  -0.740994  0.637807
H    -0.189727  0.155378  -1.541680
H    -1.303137  1.311081  -0.764061
H    -1.866341  -0.325075  -1.165058
N    -1.313800  -0.139027  1.609234
C    -2.658998  0.380624  1.687904
C    -2.777250  1.194643  2.987123
O    -2.145403  0.873065  3.991330
H    -0.899216  -0.405826  2.501315
H    -2.848044  1.014489  0.812738
C    -3.744118  -0.745431  1.728214
C    -3.799638  -1.543625  0.455885
C    -2.965825  -2.654069  0.256971
C    -4.631517  -1.152148  -0.600395
C    -2.948523  -3.342526  -0.952180
C    -4.630074  -1.832854  -1.816829
C    -3.781795  -2.931276  -1.997294
O    -3.729642  -3.642957  -3.166769
H    -4.723431  -0.285241  1.929580
H    -3.513302  -1.389051  2.589005
H    -2.302802  -2.976922  1.059786
H    -5.295948  -0.294671  -0.474853
H    -2.293148  -4.199204  -1.101880
H    -5.291116  -1.513288  -2.625410
H    -4.353986  -3.253674  -3.799415
N    -3.654456  2.240099  2.990696
C    -4.409664  2.777092  1.870243
H    -3.718419  2.713884  3.886184
H    -5.003668  3.623465  2.230129
H    -5.107277  2.039986  1.446331
H    -3.756650  3.145990  1.065417
