33
Energy: -21828.6392492 eV PBE+vdW (tier 2 basis)
C    -0.187038  -0.397584  -1.433475
C    0.286816  0.054152  -0.069968
O    1.403918  0.552282  0.073291
H    -1.002908  0.241417  -1.793803
H    -0.551188  -1.431577  -1.438714
H    0.663098  -0.313575  -2.115306
N    -0.525229  -0.061246  1.040951
C    -1.840768  -0.614245  1.374406
C    -1.787419  -1.826460  2.342064
O    -2.564869  -1.850564  3.296008
H    -0.036299  0.318505  1.849029
H    -2.330720  0.137320  2.012209
C    -2.824410  -0.918959  0.236712
C    -3.287604  0.255888  -0.599727
C    -3.906759  0.009166  -1.834759
C    -3.152115  1.587855  -0.196606
C    -4.377443  1.041063  -2.638866
C    -3.615551  2.636073  -0.992854
C    -4.231613  2.367239  -2.217617
O    -4.703977  3.350658  -3.046434
H    -3.699341  -1.365792  0.736313
H    -2.433638  -1.705966  -0.423681
H    -4.020368  -1.020566  -2.179051
H    -2.665210  1.833177  0.746474
H    -4.855251  0.837094  -3.596104
H    -3.489746  3.668062  -0.658512
H    -4.535657  4.213786  -2.636028
N    -0.899249  -2.842968  2.138494
C    0.022869  -3.093459  1.041079
H    -0.977293  -3.558643  2.854322
H    -0.476879  -3.042199  0.064752
H    0.411247  -4.111389  1.153274
H    0.873750  -2.400125  1.037741
