33
Energy: -21829.3545948 eV PBE+vdW (tier 2 basis)
C    0.252232  -1.104230  -0.223647
C    -0.463746  -1.189110  1.107789
O    -1.215279  -2.135836  1.384078
H    0.872620  -0.206430  -0.331971
H    -0.491547  -1.128342  -1.029578
H    0.886068  -1.992706  -0.337607
N    -0.233134  -0.165553  1.968581
C    -0.734546  -0.101795  3.337955
C    -2.217217  0.371588  3.428217
O    -2.573666  1.323131  4.125176
H    0.345451  0.615470  1.670320
H    -0.727259  -1.134340  3.723646
C    0.208357  0.761123  4.205316
C    0.733736  2.008309  3.529614
C    -0.051011  3.166836  3.393952
C    2.028461  2.031113  2.992784
C    0.436313  4.298179  2.748604
C    2.529915  3.159427  2.340438
C    1.730855  4.299070  2.216415
O    2.158345  5.441984  1.591576
H    1.059962  0.134969  4.504564
H    -0.347250  1.027541  5.113337
H    -1.062724  3.165215  3.799019
H    2.667843  1.152117  3.096134
H    -0.174873  5.194718  2.651394
H    3.545306  3.153812  1.937847
H    3.069944  5.309520  1.286440
N    -3.069086  -0.389467  2.703596
C    -4.495494  -0.127052  2.676894
H    -2.677901  -1.199215  2.210513
H    -4.954789  -0.754521  1.905977
H    -4.689560  0.928329  2.445372
H    -4.967968  -0.348417  3.645574
