33
Energy: -21828.4578196 eV PBE+vdW (tier 2 basis)
C    -0.218828  0.036284  -0.341446
C    0.111946  0.301977  1.112267
O    1.270367  0.402952  1.508926
H    -0.536686  -1.007466  -0.470843
H    0.690612  0.202307  -0.924773
H    -1.011642  0.692912  -0.719289
N    -0.926971  0.426002  2.007335
C    -2.367668  0.327803  1.812269
C    -2.720249  -1.013787  1.092597
O    -2.317023  -2.043619  1.629438
H    -0.595806  0.492089  2.964584
H    -2.754657  0.065842  2.808563
C    -3.062753  1.699393  1.508526
C    -2.473064  2.670304  0.508666
C    -1.202165  3.243617  0.695981
C    -3.215768  3.115109  -0.592963
C    -0.671838  4.159996  -0.204985
C    -2.704554  4.041974  -1.501416
C    -1.418572  4.557356  -1.318705
O    -0.849050  5.460511  -2.176461
H    -3.087823  2.211511  2.483816
H    -4.117242  1.507354  1.263200
H    -0.606536  2.967516  1.564000
H    -4.231121  2.747143  -0.743891
H    0.319322  4.583999  -0.050823
H    -3.312417  4.369291  -2.347750
H    -1.477214  5.655217  -2.890029
N    -3.512733  -1.100946  -0.016884
C    -3.958320  -0.113295  -0.981726
H    -3.683847  -2.075105  -0.248953
H    -4.167197  -0.627754  -1.926523
H    -3.188981  0.639848  -1.179108
H    -4.880261  0.399321  -0.667114
