33
Energy: -21828.9347913 eV PBE+vdW (tier 2 basis)
C    -1.764656  -0.170781  -0.073843
C    -1.331539  -0.664424  1.291040
O    -0.819597  -1.770846  1.449922
H    -1.492583  0.873004  -0.270254
H    -2.857755  -0.239843  -0.169288
H    -1.308034  -0.821965  -0.823760
N    -1.572676  0.136837  2.387628
C    -1.932134  1.552915  2.455630
C    -3.199209  1.901937  1.641068
O    -3.195690  2.776916  0.778445
H    -1.186537  -0.267750  3.236420
H    -2.197884  1.725301  3.512539
C    -0.766881  2.510285  2.119857
C    0.403062  2.322225  3.051106
C    0.488859  3.041063  4.252859
C    1.413276  1.391664  2.775739
C    1.534805  2.845033  5.150286
C    2.467520  1.181399  3.663803
C    2.530588  1.907917  4.856844
O    3.541597  1.750180  5.769781
H    -1.148581  3.538085  2.175894
H    -0.463364  2.355628  1.075928
H    -0.278242  3.781120  4.489723
H    1.379673  0.814148  1.851128
H    1.598151  3.414180  6.076843
H    3.243487  0.450570  3.425816
H    4.157830  1.077616  5.438684
N    -4.338510  1.210650  1.944346
C    -4.552950  0.183304  2.951035
H    -5.128581  1.484615  1.368729
H    -4.192297  -0.804442  2.631079
H    -5.627989  0.117033  3.153292
H    -4.055564  0.439513  3.895561
