33
Energy: -21829.024289 eV PBE+vdW (tier 2 basis)
C    -0.440502  -1.546360  0.319639
C    -1.151703  -2.248625  1.459573
O    -0.999001  -3.445362  1.697471
H    0.123274  -2.295418  -0.241835
H    0.253472  -0.780626  0.695285
H    -1.146699  -1.042241  -0.354509
N    -1.991009  -1.484576  2.235310
C    -2.145290  -0.043388  2.212164
C    -0.976969  0.807974  2.769523
O    -0.854554  1.960956  2.351586
H    -2.391304  -1.992818  3.020576
H    -2.207745  0.289350  1.166806
C    -3.479139  0.378296  2.883844
C    -3.572921  0.034044  4.348613
C    -4.116003  -1.186210  4.780248
C    -3.072279  0.907040  5.324927
C    -4.137182  -1.542521  6.126767
C    -3.089137  0.567431  6.675736
C    -3.616411  -0.664356  7.081665
O    -3.660181  -1.056158  8.393040
H    -4.294283  -0.103766  2.325618
H    -3.577548  1.461838  2.738781
H    -4.546712  -1.872461  4.048125
H    -2.655509  1.868642  5.022558
H    -4.561710  -2.491015  6.452455
H    -2.697222  1.265063  7.419210
H    -3.284915  -0.351338  8.944588
N    -0.099736  0.300111  3.683471
C    -0.106341  -0.938242  4.457633
H    0.608091  0.986435  3.927051
H    0.613875  -0.818782  5.274709
H    0.194743  -1.810965  3.863734
H    -1.084811  -1.132836  4.912521
