33
Energy: -21829.1753707 eV PBE+vdW (tier 2 basis)
C    -0.686774  -1.018866  0.827520
C    -0.802613  -0.627770  2.287489
O    0.151041  -0.215433  2.940696
H    -0.808694  -2.105095  0.706839
H    0.310266  -0.737065  0.479966
H    -1.446067  -0.527833  0.203737
N    -2.051211  -0.734185  2.865620
C    -3.254757  -1.326070  2.302275
C    -4.253337  -0.310214  1.697609
O    -5.281051  -0.704760  1.150302
H    -2.033731  -0.567690  3.869211
H    -2.968114  -1.973737  1.462027
C    -3.976715  -2.210422  3.343864
C    -3.177469  -3.427550  3.731789
C    -3.131400  -4.549562  2.890085
C    -2.425105  -3.466175  4.910204
C    -2.362541  -5.665137  3.203948
C    -1.648013  -4.576189  5.241537
C    -1.612212  -5.679966  4.385151
O    -0.870914  -6.802073  4.648848
H    -4.941372  -2.493898  2.903249
H    -4.201243  -1.598832  4.232732
H    -3.717131  -4.553176  1.968683
H    -2.446748  -2.616068  5.594547
H    -2.336614  -6.535130  2.549103
H    -1.069399  -4.582124  6.167664
H    -0.400438  -6.675981  5.488153
N    -3.898874  0.995532  1.817534
C    -4.704009  2.080489  1.293744
H    -3.012194  1.189001  2.271760
H    -5.602097  1.640971  0.846282
H    -4.159859  2.644302  0.523165
H    -5.003610  2.772706  2.092667
