33
Energy: -21829.3111034 eV PBE+vdW (tier 2 basis)
C    -2.023264  -1.154254  3.235177
C    -1.045912  -0.191432  2.594022
O    -0.156660  -0.588295  1.828118
H    -2.931786  -0.669468  3.612903
H    -1.519919  -1.647050  4.078841
H    -2.295089  -1.926304  2.508041
N    -1.205530  1.116684  2.933090
C    -0.267061  2.219727  2.682053
C    -0.191492  2.723691  1.219469
O    -0.242194  3.934674  0.997302
H    -1.948073  1.322129  3.589605
H    -0.685106  3.076209  3.223804
C    1.156230  1.951158  3.242985
C    1.144425  1.612445  4.710908
C    1.009784  2.610709  5.684335
C    1.217293  0.281256  5.145335
C    0.946151  2.296913  7.041033
C    1.154698  -0.050142  6.496738
C    1.015694  0.961098  7.451726
O    0.959205  0.586754  8.770130
H    1.740067  2.864117  3.057113
H    1.625891  1.141034  2.671580
H    0.959817  3.658074  5.380163
H    1.333773  -0.513773  4.407018
H    0.849867  3.092611  7.783282
H    1.220431  -1.086084  6.827285
H    0.879074  1.383985  9.317483
N    -0.021257  1.767433  0.275718
C    0.109453  2.080931  -1.132728
H    0.049389  0.796284  0.602239
H    -0.645594  1.545661  -1.725217
H    1.106254  1.809661  -1.510092
H    -0.033560  3.159565  -1.257460
