33
Energy: -21829.0140533 eV PBE+vdW (tier 2 basis)
C    0.215847  -0.462855  1.196311
C    -0.633019  -1.003734  2.328931
O    -0.239872  -1.014204  3.491583
H    1.264367  -0.522611  1.501836
H    -0.030917  0.595505  1.032431
H    0.075539  -0.986809  0.243851
N    -1.886790  -1.502280  2.020906
C    -2.625858  -1.414724  0.760299
C    -2.009895  -2.295841  -0.361430
O    -2.115143  -1.998780  -1.549127
H    -2.423277  -1.719104  2.856323
H    -3.595915  -1.889967  0.972907
C    -2.926580  0.030089  0.265867
C    -4.363964  0.236498  -0.149280
C    -4.839087  -0.198221  -1.396697
C    -5.274042  0.846109  0.722578
C    -6.172151  -0.032605  -1.760077
C    -6.613433  1.018733  0.371986
C    -7.066633  0.577168  -0.874371
O    -8.369093  0.717415  -1.282947
H    -2.255773  0.265385  -0.570367
H    -2.693173  0.717001  1.089774
H    -4.146126  -0.681766  -2.085273
H    -4.931632  1.204039  1.695483
H    -6.535352  -0.368518  -2.730683
H    -7.303635  1.503439  1.066254
H    -8.870193  1.158054  -0.578511
N    -1.409264  -3.431116  0.084725
C    -0.800432  -4.401123  -0.803614
H    -1.304275  -3.531868  1.088701
H    -1.206422  -5.405792  -0.624341
H    0.291307  -4.432732  -0.676230
H    -1.027788  -4.100972  -1.831896
