33
Energy: -21828.618754 eV PBE+vdW (tier 2 basis)
C    0.324003  0.456083  2.356005
C    -0.850709  -0.207029  3.048446
O    -0.663530  -0.973374  3.993712
H    0.268628  1.549783  2.413435
H    0.391989  0.179570  1.296796
H    1.228549  0.116787  2.867406
N    -2.146704  0.049864  2.653249
C    -2.832529  0.766650  1.568588
C    -3.676847  -0.209406  0.707885
O    -4.894087  -0.055156  0.641492
H    -2.788685  -0.462434  3.255585
H    -3.614440  1.375466  2.046125
C    -1.990828  1.740444  0.718052
C    -2.840283  2.488996  -0.281204
C    -2.951443  2.049498  -1.604068
C    -3.561729  3.630149  0.095014
C    -3.756697  2.718769  -2.524018
C    -4.369232  4.310948  -0.809300
C    -4.471559  3.852615  -2.126853
O    -5.279682  4.557244  -2.980175
H    -1.188374  1.217099  0.184893
H    -1.507289  2.454840  1.399102
H    -2.404793  1.161274  -1.925114
H    -3.491953  3.997410  1.120639
H    -3.829975  2.357879  -3.552142
H    -4.927009  5.197648  -0.511613
H    -5.271062  4.123766  -3.848266
N    -3.064182  -1.231719  0.034713
C    -1.678072  -1.669888  0.044337
H    -3.735346  -1.817930  -0.451556
H    -1.571972  -2.476038  -0.689454
H    -1.361491  -2.054197  1.023939
H    -0.991165  -0.867445  -0.255956
