33
Energy: -21828.6801908 eV PBE+vdW (tier 2 basis)
C    -1.366013  -0.810887  -0.351991
C    -1.061568  -0.577073  1.107370
O    0.021667  -0.916229  1.584503
H    -2.242504  -0.290453  -0.735999
H    -1.532800  -1.888036  -0.481687
H    -0.474643  -0.532262  -0.924579
N    -1.995847  -0.024983  1.972585
C    -3.268125  0.669317  1.839009
C    -4.377694  -0.184011  1.185004
O    -4.152597  -1.185343  0.517115
H    -1.596597  0.008224  2.906280
H    -3.594762  0.815627  2.881268
C    -3.149493  2.118199  1.259936
C    -2.696903  2.243841  -0.168451
C    -3.588128  2.058895  -1.236360
C    -1.360305  2.525977  -0.470945
C    -3.161997  2.129224  -2.558131
C    -0.916805  2.601322  -1.789796
C    -1.817424  2.396210  -2.839275
O    -1.446921  2.451867  -4.157006
H    -2.441756  2.647952  1.913171
H    -4.118795  2.620932  1.385639
H    -4.637627  1.841211  -1.031495
H    -0.644936  2.670272  0.339680
H    -3.855958  1.978426  -3.383782
H    0.132850  2.814875  -2.002522
H    -0.494264  2.630154  -4.206583
N    -5.672365  0.228145  1.394591
C    -6.204061  1.271396  2.253495
H    -6.339878  -0.375437  0.924282
H    -6.269966  2.249051  1.750418
H    -5.599084  1.392270  3.161208
H    -7.213611  0.986653  2.572494
