33
Energy: -21829.2889491 eV PBE+vdW (tier 2 basis)
C    -0.443388  0.065969  -0.836906
C    -0.134272  -0.175070  0.628837
O    1.012693  -0.119646  1.077329
H    0.165203  -0.616080  -1.442874
H    -0.143440  1.089455  -1.096012
H    -1.501498  -0.069642  -1.091034
N    -1.213162  -0.444943  1.414680
C    -1.107898  -0.703393  2.830391
C    -2.411142  -1.406032  3.246234
O    -3.399802  -1.421519  2.513872
H    -2.156203  -0.519033  1.038384
H    -0.250087  -1.374854  3.001231
C    -0.847629  0.593828  3.661664
C    -1.910048  1.646964  3.500658
C    -1.818602  2.605015  2.480202
C    -3.039481  1.680876  4.327602
C    -2.813881  3.557529  2.282356
C    -4.044919  2.628385  4.144721
C    -3.936071  3.569171  3.115861
O    -4.890047  4.527135  2.883135
H    0.128093  0.974994  3.333102
H    -0.739980  0.314962  4.720753
H    -0.942787  2.608064  1.830023
H    -3.141015  0.951264  5.132868
H    -2.733779  4.301097  1.490446
H    -4.916272  2.636741  4.803334
H    -5.606907  4.414873  3.527303
N    -2.387067  -1.973715  4.483243
C    -3.541359  -2.622232  5.075867
H    -1.521364  -1.942874  5.008340
H    -3.341553  -3.683124  5.280492
H    -4.364933  -2.548283  4.358394
H    -3.837402  -2.128880  6.012502
