33
Energy: -21829.210769 eV PBE+vdW (tier 2 basis)
C    -1.417591  -2.012334  0.238140
C    -0.723954  -0.937130  1.050975
O    0.387810  -0.504140  0.721598
H    -2.407015  -2.292539  0.619253
H    -0.777929  -2.903730  0.221541
H    -1.516964  -1.662336  -0.796608
N    -1.405271  -0.495163  2.144827
C    -0.941574  0.483147  3.141385
C    -0.889715  1.942446  2.614127
O    -1.580557  2.812522  3.142180
H    -2.331857  -0.875313  2.291295
H    -1.731395  0.522728  3.900956
C    0.371667  0.034294  3.832894
C    0.804606  0.981880  4.922773
C    0.241816  0.917326  6.202813
C    1.758660  1.978804  4.677403
C    0.612312  1.812327  7.204185
C    2.140441  2.881733  5.665178
C    1.563673  2.801873  6.935564
O    1.971677  3.712250  7.877152
H    1.162871  -0.067359  3.080373
H    0.194077  -0.969903  4.247100
H    -0.501839  0.150425  6.428345
H    2.208485  2.052889  3.686579
H    0.162196  1.741581  8.196904
H    2.882691  3.653890  5.467383
H    1.481730  3.550060  8.698764
N    -0.018927  2.161614  1.597478
C    0.146568  3.471044  0.999020
H    0.410604  1.336359  1.166028
H    -0.493252  3.606178  0.112725
H    1.192539  3.613340  0.700517
H    -0.128584  4.231234  1.738155
