33
Energy: -21829.0305034 eV PBE+vdW (tier 2 basis)
C    0.120013  -0.411924  0.502600
C    -0.085063  -0.750454  1.966620
O    0.757445  -1.362901  2.617461
H    1.166205  -0.617080  0.260871
H    -0.104915  0.637311  0.269912
H    -0.519882  -1.040006  -0.131552
N    -1.253923  -0.338471  2.570258
C    -2.450017  0.247339  1.976020
C    -2.957618  1.335071  2.948224
O    -3.854808  1.108307  3.757138
H    -1.336284  -0.659875  3.532909
H    -2.154176  0.712073  1.026272
C    -3.565536  -0.784894  1.692888
C    -3.153197  -1.805344  0.666496
C    -2.476711  -2.978381  1.033019
C    -3.368021  -1.577308  -0.698779
C    -2.014963  -3.882595  0.080861
C    -2.917274  -2.474332  -1.666322
C    -2.232617  -3.631048  -1.277233
O    -1.761847  -4.552072  -2.176667
H    -4.454679  -0.234715  1.352678
H    -3.845078  -1.259766  2.642717
H    -2.293949  -3.184964  2.087965
H    -3.899495  -0.678347  -1.017094
H    -1.484625  -4.787102  0.374966
H    -3.102213  -2.278030  -2.724809
H    -1.987481  -4.257646  -3.073303
N    -2.340352  2.552601  2.886406
C    -1.188290  2.934013  2.085912
H    -2.659534  3.198856  3.601430
H    -0.981058  3.994306  2.263947
H    -1.382307  2.815739  1.010286
H    -0.288257  2.358613  2.347697
