14
Energy: -598953.283924 eV PBE+vdW (tier 2 basis)
N    0.162777  0.126748  0.205709
C    0.172407  0.214281  1.709349
C    1.495232  -0.323955  2.237207
O    2.470909  -0.627563  1.493849
H    -0.490705  -0.618675  -0.072674
H    -0.243176  0.986865  -0.182289
H    0.177504  1.285402  1.977895
H    -1.036222  -0.328428  3.430840
C    -1.052206  -0.457539  2.342299
H    -1.967805  0.014324  1.965702
H    -1.080325  -1.534145  2.124018
H    2.438638  -0.731323  3.845422
O    1.560671  -0.418832  3.524704
Pb    2.389302  -0.382156  -0.759034
