14
Energy: -598953.089196 eV PBE+vdW (tier 2 basis)
N    0.356288  0.825966  0.778628
C    0.546934  0.134855  2.097786
C    1.924142  -0.522987  2.125845
O    2.569409  -0.760424  1.069755
H    -0.628970  0.747612  0.497944
H    0.526127  1.834737  0.882703
H    0.505548  0.887880  2.901264
H    -0.540417  -1.691559  1.537957
C    -0.541098  -0.928952  2.329175
H    -0.396358  -1.442444  3.287915
H    -1.525881  -0.445581  2.368805
H    1.956080  -0.708167  4.047007
O    2.466221  -0.913551  3.234521
Pb    1.919974  -0.059388  -0.964307
