25
Energy: -570543.692467 eV PBE+vdW (tier 2 basis)
N    1.488885  -1.817460  1.363458
C    0.333247  -0.912549  1.151360
C    0.808126  0.532934  1.371363
O    1.780077  0.848017  2.065193
H    1.199465  -2.796262  1.433777
H    2.165487  -1.753281  0.595462
H    0.002842  -0.960912  0.101224
C    -0.886783  -1.284010  2.078279
C    -0.413930  -1.734693  3.440638
C    0.155807  -0.829087  4.331499
C    -0.307676  -3.116171  3.750017
C    1.067919  -1.282384  5.349815
C    0.435366  -3.599753  4.819039
C    1.164603  -2.701550  5.622335
O    1.904563  -3.030911  6.665955
H    -1.451788  -2.082813  1.581276
H    -1.556131  -0.414596  2.129072
H    -0.001890  0.246148  4.229159
H    -0.829409  -3.837821  3.117449
H    1.449185  -0.593411  6.107096
H    0.453005  -4.668477  5.037423
H    1.914857  -3.993105  6.842491
O    0.048226  1.395653  0.738365
H    0.348838  2.319917  0.888122
Hg    2.511106  -1.045424  3.407131
