25
Energy: -570543.494184 eV PBE+vdW (tier 2 basis)
N    -0.630276  -0.022284  -0.128614
C    -0.043533  -0.251025  1.256434
C    1.511408  -0.225842  1.094145
O    1.918962  0.396561  0.079851
H    -1.554698  0.428567  -0.095214
H    0.042014  0.579451  -0.645144
H    -0.283421  0.654333  1.836057
C    -0.634055  -1.472843  1.982161
C    -0.498781  -2.825009  1.341802
C    0.564733  -3.690867  1.707429
C    -1.469575  -3.284548  0.416596
C    0.680040  -4.948569  1.153777
C    -1.372468  -4.534962  -0.157048
C    -0.289648  -5.384784  0.210537
O    -0.275304  -6.581906  -0.355577
H    -1.704706  -1.260080  2.142798
H    -0.154296  -1.472950  2.971213
H    1.290994  -3.361806  2.449942
H    -2.342881  -2.670071  0.186809
H    1.491467  -5.614905  1.449913
H    -2.115819  -4.909879  -0.859570
H    0.469691  -7.139238  -0.051792
O    2.197580  -0.751042  2.003937
H    -0.719867  -0.909228  -0.648315
Hg    4.267200  0.092180  1.009079
