25
Energy: -570543.459498 eV PBE+vdW (tier 2 basis)
N    0.505730  -0.343562  -0.054270
C    0.700009  -0.870914  1.356286
C    2.162071  -1.450076  1.304308
O    2.932067  -1.549118  2.362541
H    1.200077  -0.903479  -0.621058
H    0.758787  0.650018  -0.143879
H    0.643897  -0.016000  2.041654
C    -0.425452  -1.902874  1.662008
C    -0.225577  -2.598982  2.990413
C    -0.245167  -1.881146  4.181968
C    0.131773  -3.971152  3.045935
C    0.305657  -2.449303  5.395734
C    0.511926  -4.606182  4.220904
C    0.606803  -3.868659  5.419801
O    0.922109  -4.364916  6.600687
H    -0.451071  -2.652466  0.857982
H    -1.390282  -1.372004  1.648545
H    -0.608350  -0.851789  4.223402
H    0.109586  -4.561104  2.128168
H    0.171119  -1.942844  6.354339
H    0.730990  -5.674939  4.218250
H    1.110758  -5.324787  6.578550
O    2.585618  -1.750521  0.196965
H    -0.448883  -0.464789  -0.416821
Hg    2.266809  -1.698409  4.366583
