25
Energy: -570543.17148 eV PBE+vdW (tier 2 basis)
N    0.878997  0.101000  0.478642
C    0.173593  0.075304  1.728052
C    1.119528  0.259207  2.942511
O    2.331534  0.214744  2.839846
H    0.362396  0.533878  -0.288687
H    1.268791  -0.795928  0.184442
H    -0.538904  0.913852  1.727692
C    -0.719930  -1.269020  1.927344
C    -0.035089  -2.570981  2.105319
C    0.428231  -2.986925  3.388249
C    0.110840  -3.456946  1.003659
C    0.994476  -4.225588  3.574245
C    0.678353  -4.699317  1.160735
C    1.125032  -5.101911  2.457671
O    1.648283  -6.309280  2.536339
H    -1.384073  -1.289205  1.054687
H    -1.342166  -1.052226  2.808909
H    0.313560  -2.327877  4.249089
H    -0.266981  -3.167422  0.021873
H    1.329683  -4.544615  4.562153
H    0.783961  -5.399421  0.332622
H    1.930685  -6.551877  3.442893
O    0.563141  0.439271  4.135183
H    -0.400555  0.593772  4.108478
Hg    3.205294  1.245497  0.591361
