25
Energy: -570543.499404 eV PBE+vdW (tier 2 basis)
N    0.225115  -0.645037  -0.317539
C    0.416402  -0.945434  1.045593
C    1.925649  -1.154526  1.385027
O    2.244469  -1.769312  2.397339
H    0.200613  -1.411478  -0.988639
H    2.309717  -0.208310  -0.176213
H    0.128405  -0.061452  1.638044
C    -0.306442  -2.229598  1.617618
C    0.234472  -2.621474  2.945277
C    -0.051169  -1.823763  4.110925
C    0.783959  -3.944110  3.135719
C    0.130944  -2.320913  5.366870
C    0.965378  -4.466343  4.381611
C    0.573140  -3.685727  5.525687
O    0.467330  -4.182459  6.730539
H    -0.216228  -3.050661  0.895226
H    -1.371761  -1.966421  1.706895
H    -0.463434  -0.821899  3.989766
H    1.032982  -4.540529  2.258049
H    -0.141815  -1.760985  6.261228
H    1.335910  -5.483514  4.519669
H    0.716286  -5.129605  6.791653
O    2.800296  -0.621108  0.580874
H    -0.396767  0.121527  -0.562464
Hg    3.544548  -2.443869  5.908243
