25
Energy: -570543.560459 eV PBE+vdW (tier 2 basis)
N    -0.640140  -0.200427  0.031412
C    -0.863008  -0.314541  1.393897
C    -0.143139  0.769557  2.259418
O    -0.022826  0.646090  3.463151
H    -1.407509  -0.112486  -0.627381
H    0.294413  -0.246468  -0.365817
H    -1.935423  -0.169443  1.594769
C    -0.420736  -1.744504  2.020915
C    -0.504953  -1.791477  3.491981
C    -1.788273  -1.827703  4.139976
C    0.670120  -1.990969  4.284729
C    -1.905697  -2.156152  5.461221
C    0.582024  -2.324973  5.607457
C    -0.718233  -2.486694  6.202395
O    -0.743624  -3.044007  7.388277
H    0.587250  -1.982158  1.661227
H    -1.133839  -2.448820  1.570423
H    -2.691333  -1.644547  3.556928
H    1.648898  -1.923864  3.810460
H    -2.884092  -2.246757  5.935867
H    1.459559  -2.560629  6.209087
H    -1.648974  -3.187017  7.736692
O    0.248066  1.803136  1.538934
H    0.656782  2.491099  2.109672
Hg    -0.404314  0.574756  7.237309
