25
Energy: -570543.371013 eV PBE+vdW (tier 2 basis)
N    -0.047089  -0.778165  0.018885
C    -0.271220  -0.273649  1.297905
C    1.099764  0.196267  1.899229
O    1.824499  -0.572711  2.500468
H    0.707001  -1.429803  -0.178544
H    -0.509188  -0.365802  -0.786735
H    -0.961311  0.574928  1.227573
C    -0.905867  -1.289572  2.400075
C    0.029459  -2.242340  3.013282
C    0.406711  -2.100384  4.390146
C    0.440484  -3.426670  2.309591
C    1.162097  -3.046743  5.024236
C    1.204342  -4.384018  2.916221
C    1.636910  -4.174099  4.273717
O    2.550230  -4.913795  4.854811
H    -1.703856  -1.799802  1.844597
H    -1.356366  -0.635934  3.157178
H    0.076936  -1.218851  4.939765
H    0.121049  -3.573850  1.277441
H    1.479964  -2.941380  6.061046
H    1.533086  -5.272961  2.375284
H    2.884780  -5.641894  4.289890
O    1.333880  1.460423  1.604951
H    2.220873  1.735205  1.926502
Hg    -0.986779  -5.925780  5.506986
