25
Energy: -570543.486578 eV PBE+vdW (tier 2 basis)
N    0.526197  0.360525  0.374923
C    0.050392  -0.088431  1.748142
C    1.310958  -0.617553  2.505151
O    2.412204  -0.243116  2.034976
H    -0.014710  1.154999  0.008289
H    1.527983  0.623824  0.478761
H    -0.238663  0.828159  2.285680
C    -1.162370  -1.035756  1.693991
C    -1.040822  -2.295030  0.881079
C    -0.550298  -3.489764  1.465081
C    -1.481216  -2.320494  -0.467453
C    -0.471413  -4.654275  0.733371
C    -1.412799  -3.475219  -1.222413
C    -0.904189  -4.660224  -0.623619
O    -0.821580  -5.821201  -1.255734
H    -2.014841  -0.446837  1.318489
H    -1.376430  -1.281930  2.744613
H    -0.252728  -3.492692  2.513308
H    -1.929375  -1.429165  -0.911350
H    -0.111391  -5.586077  1.167907
H    -1.767634  -3.490356  -2.253818
H    -1.161238  -5.783240  -2.172868
O    1.104995  -1.297552  3.544115
H    0.472685  -0.412095  -0.307022
Hg    3.442139  -1.355478  4.126928
