25
Energy: -570542.878729 eV PBE+vdW (tier 2 basis)
N    -0.959837  1.137976  1.018566
C    -0.440210  0.230099  2.132828
C    1.095809  0.486399  2.071517
O    1.552078  0.941882  1.040767
H    -0.125088  1.223146  0.381091
H    -1.100242  2.079788  1.404876
H    -0.886893  0.588456  3.070255
C    -0.698548  -1.304532  1.962560
C    -2.145978  -1.609003  1.666692
C    -2.537122  -1.824910  0.345539
C    -3.167909  -1.447931  2.637431
C    -3.910275  -1.576433  -0.066805
C    -4.516497  -1.370914  2.309503
C    -4.917652  -1.400924  0.957586
O    -6.162115  -1.329804  0.523437
H    -0.367572  -1.786062  2.894031
H    -0.057276  -1.695435  1.160353
H    -1.808596  -2.100896  -0.421479
H    -2.890498  -1.372752  3.690760
H    -4.244033  -1.826955  -1.076446
H    -5.266373  -1.287776  3.097795
H    -6.819850  -1.238757  1.242283
O    1.863843  0.156777  3.095055
H    1.383050  -0.136773  3.891906
Hg    -2.807218  0.539335  -0.082099
