25
Energy: -570543.05942 eV PBE+vdW (tier 2 basis)
N    0.149679  1.049472  1.086091
C    0.064392  -0.044899  2.050989
C    1.440447  -0.316201  2.726926
O    2.515655  -0.089830  2.181768
H    0.088476  1.976479  1.515987
H    -0.553721  0.976590  0.345518
H    -0.637926  0.233019  2.856390
C    -0.406627  -1.359039  1.364833
C    -1.786098  -1.282615  0.755549
C    -1.948401  -1.293389  -0.650116
C    -2.940490  -1.262860  1.582837
C    -3.204455  -1.283729  -1.221440
C    -4.206687  -1.256379  1.040286
C    -4.352840  -1.269212  -0.376820
O    -5.523739  -1.276571  -0.990326
H    -0.384987  -2.163473  2.116194
H    0.329221  -1.634442  0.594704
H    -1.072733  -1.347299  -1.298162
H    -2.835170  -1.280078  2.668382
H    -3.349945  -1.307254  -2.300877
H    -5.089299  -1.256199  1.681437
H    -6.283829  -1.285095  -0.372529
O    1.442895  -0.877579  3.917762
H    0.555161  -0.977162  4.314031
Hg    2.434873  1.060643  0.033086
