22
Energy: -12019.9914497 eV PBE+vdW (tier 2 basis)
N    -1.198622  -1.400326  0.575864
C    -0.293623  -0.703506  1.505397
C    1.145413  -0.703370  0.956372
O    1.548995  0.114560  0.163118
H    -0.904266  -2.370758  0.446740
H    1.504016  -2.267526  2.017761
H    -0.587139  0.354856  1.503460
C    -0.436663  -1.272886  2.921930
C    -1.823313  -1.078291  3.565700
C    -1.926610  -1.904715  4.852390
C    -2.129121  0.398890  3.839254
H    0.330482  -0.821072  3.573714
H    -0.231704  -2.362042  2.899859
H    -2.568107  -1.456260  2.847848
H    -1.755600  -2.973720  4.660992
H    -2.920496  -1.803335  5.309105
H    -1.185871  -1.576122  5.597813
H    -1.384626  0.838562  4.520847
H    -3.115223  0.509334  4.310378
H    -2.140605  1.000130  2.920670
O    1.955644  -1.742298  1.331750
H    -1.160961  -0.957104  -0.342961
