22
Energy: -12020.0770001 eV PBE+vdW (tier 2 basis)
N    1.875539  -0.821284  0.829851
C    0.440700  -0.562809  1.066751
C    0.386244  0.435759  2.226379
O    0.070240  0.211910  3.372174
H    2.343718  0.035848  0.532949
H    1.974060  -1.494505  0.069291
H    -0.052274  -0.070620  0.203271
C    -0.288872  -1.870815  1.386149
C    -1.780238  -1.906363  1.005451
C    -2.348410  -3.308276  1.257024
C    -2.623406  -0.844762  1.723549
H    -0.162510  -2.096200  2.455733
H    0.223073  -2.676772  0.836913
H    -1.845465  -1.708227  -0.080412
H    -3.395457  -3.377472  0.931198
H    -2.316963  -3.557522  2.328296
H    -1.777247  -4.078480  0.719534
H    -2.309360  0.178600  1.475091
H    -2.552677  -0.954230  2.814791
H    -3.681030  -0.935789  1.439228
O    0.788791  1.672624  1.803576
H    0.783544  2.242386  2.597213
