22
Energy: -12020.1704678 eV PBE+vdW (tier 2 basis)
N    1.738556  -0.456767  0.366713
C    0.647045  -0.626455  1.344707
C    0.306905  0.722750  1.975284
O    -0.633201  1.425659  1.661123
H    1.490018  0.256108  -0.321165
H    2.584787  -0.131177  0.838314
H    -0.250348  -0.918431  0.780507
C    1.010969  -1.738855  2.335817
C    -0.152722  -2.349301  3.138019
C    0.342571  -3.582111  3.904712
C    -0.832770  -1.359110  4.092578
H    1.787636  -1.375259  3.028787
H    1.476426  -2.531767  1.730974
H    -0.910079  -2.690182  2.409442
H    0.796243  -4.321731  3.230389
H    -0.481432  -4.074205  4.439467
H    1.101246  -3.302010  4.651416
H    -1.608326  -1.864674  4.684557
H    -1.322058  -0.531478  3.562720
H    -0.105349  -0.926784  4.795759
O    1.240146  1.122922  2.891488
H    0.968738  2.018857  3.169392
