22
Energy: -12019.9730076 eV PBE+vdW (tier 2 basis)
N    0.343096  1.164004  2.269723
C    0.896756  -0.147723  2.585128
C    1.189078  -0.879152  1.265043
O    1.188206  -0.338676  0.184239
H    0.636744  1.431388  1.328490
H    0.668267  1.869785  2.926477
H    1.893226  -0.079122  3.074597
C    -0.009417  -0.958961  3.539999
C    -1.386872  -1.389788  2.988172
C    -1.842879  -2.693314  3.655518
C    -2.448177  -0.294016  3.148681
H    -0.147317  -0.362213  4.456066
H    0.548203  -1.851755  3.882215
H    -1.273811  -1.589928  1.908245
H    -2.825348  -3.008200  3.278108
H    -1.933085  -2.568279  4.745663
H    -1.135886  -3.515427  3.470311
H    -3.404133  -0.610437  2.708228
H    -2.127452  0.635721  2.666379
H    -2.627900  -0.083112  4.214652
O    1.510694  -2.198947  1.364625
H    1.415006  -2.483848  2.291440
