22
Energy: -12019.9944414 eV PBE+vdW (tier 2 basis)
N    0.241040  -0.038470  0.077340
C    0.150348  -0.083939  1.537084
C    1.492605  -0.467085  2.186892
O    2.218112  -1.336351  1.765658
H    0.937073  0.651962  -0.209497
H    0.593809  -0.939671  -0.254980
H    -0.140147  0.926463  1.876487
C    -0.973391  -1.060447  1.936394
C    -1.341744  -1.141352  3.433136
C    -2.825308  -1.502392  3.588356
C    -0.470931  -2.134631  4.215633
H    -0.706191  -2.064853  1.567501
H    -1.847685  -0.737492  1.353155
H    -1.203778  -0.136453  3.875955
H    -3.110987  -1.565344  4.647409
H    -3.037879  -2.479967  3.129852
H    -3.474352  -0.759081  3.105255
H    -0.615488  -3.154662  3.829683
H    -0.746999  -2.140736  5.279216
H    0.600265  -1.909152  4.156309
O    1.858011  0.243784  3.299351
H    1.164617  0.895869  3.501812
