22
Energy: -12020.017027 eV PBE+vdW (tier 2 basis)
N    0.473629  0.781419  1.438418
C    0.885223  -0.159359  2.470400
C    1.439419  -1.490531  1.907371
O    1.565379  -1.729591  0.730317
H    -0.256623  0.361291  0.860682
H    1.252029  0.942342  0.798080
H    1.748219  0.294728  2.991234
C    -0.221360  -0.317991  3.539011
C    -1.610984  -0.776141  3.059900
C    -1.618506  -2.179509  2.441307
C    -2.602753  -0.691056  4.227318
H    -0.326902  0.667277  4.015737
H    0.116175  -0.999926  4.341612
H    -1.949277  -0.057837  2.293769
H    -2.640946  -2.472095  2.165842
H    -1.241706  -2.929977  3.152688
H    -1.007157  -2.248472  1.532593
H    -3.618800  -0.952827  3.902479
H    -2.636709  0.320220  4.655786
H    -2.324173  -1.387378  5.033387
O    1.864364  -2.404135  2.832315
H    1.653461  -2.079452  3.725754
