22
Energy: -12020.0846821 eV PBE+vdW (tier 2 basis)
N    -1.166414  -0.292086  1.030835
C    -0.370664  0.217326  2.149908
C    0.977526  0.763335  1.686212
O    1.945119  0.927456  2.398771
H    -1.224448  0.397573  0.282773
H    -2.117128  -0.483719  1.346557
H    -0.832746  1.107538  2.635159
C    -0.177997  -0.825297  3.264119
C    0.565106  -2.124879  2.884571
C    1.275430  -2.695805  4.118431
C    -0.353447  -3.177751  2.251244
H    -1.170420  -1.074135  3.676508
H    0.369939  -0.318090  4.070206
H    1.342113  -1.865899  2.145296
H    1.813050  -3.622591  3.873816
H    0.552350  -2.935184  4.913895
H    2.001291  -1.979977  4.527764
H    -0.818047  -2.799783  1.333560
H    -1.153528  -3.467549  2.950900
H    0.209852  -4.088606  2.002598
O    0.969668  1.130071  0.372494
H    1.853396  1.509052  0.200384
