22
Energy: -12020.17418 eV PBE+vdW (tier 2 basis)
N    -0.001657  0.221104  0.187673
C    0.107783  -0.123439  1.617464
C    1.538779  -0.565631  1.923023
O    2.049959  -1.605219  1.557896
H    0.272993  -0.584866  -0.379054
H    0.644664  0.976607  -0.046507
H    -0.101247  0.791772  2.186797
C    -0.918888  -1.212442  1.957097
C    -1.263758  -1.427236  3.446125
C    -0.082950  -1.921730  4.292766
C    -1.919649  -0.193067  4.080171
H    -0.566180  -2.162157  1.523996
H    -1.837128  -0.936637  1.417446
H    -2.019489  -2.231243  3.446859
H    -0.423573  -2.215949  5.295271
H    0.675975  -1.137794  4.431960
H    0.411417  -2.788780  3.834698
H    -2.284191  -0.421484  5.091249
H    -2.774899  0.159469  3.486726
H    -1.211175  0.642892  4.176064
O    2.236482  0.393332  2.602527
H    3.145073  0.045344  2.699510
