22
Energy: -12020.1567365 eV PBE+vdW (tier 2 basis)
N    0.451854  0.923748  1.322269
C    0.903529  -0.000811  2.356228
C    1.407306  -1.268123  1.686367
O    1.184162  -1.595612  0.538403
H    -0.311902  1.507619  1.658038
H    0.125064  0.399547  0.509264
H    1.786858  0.425955  2.864197
C    -0.121828  -0.290936  3.489685
C    -1.470740  -0.923418  3.098999
C    -1.374343  -2.429244  2.818652
C    -2.505774  -0.649904  4.198657
H    -0.314052  0.686019  3.963203
H    0.369387  -0.906010  4.260439
H    -1.825649  -0.429246  2.177789
H    -0.739393  -2.657755  1.954622
H    -2.368507  -2.846295  2.606036
H    -0.969215  -2.964319  3.690783
H    -3.485715  -1.071243  3.935216
H    -2.637946  0.427719  4.370114
H    -2.196885  -1.103062  5.153183
O    2.160412  -2.021073  2.533122
H    2.420375  -2.814556  2.026735
