22
Energy: -12020.1904449 eV PBE+vdW (tier 2 basis)
N    -0.148917  0.320803  3.822097
C    -0.050645  -0.498263  2.610997
C    0.924390  0.200518  1.675468
O    0.934768  1.393690  1.455227
H    -0.940715  0.011578  4.386632
H    -0.326775  1.291399  3.554350
H    0.379221  -1.471543  2.885229
C    -1.400538  -0.716868  1.876767
C    -1.393401  -1.590288  0.609296
C    -0.910209  -3.020386  0.881018
C    -2.791042  -1.595570  -0.022360
H    -1.806968  0.277902  1.632802
H    -2.089829  -1.165622  2.613305
H    -0.702633  -1.131884  -0.119372
H    -1.536758  -3.507537  1.644251
H    0.130486  -3.048586  1.228073
H    -0.967100  -3.631021  -0.030656
H    -3.529207  -2.048166  0.657401
H    -2.802742  -2.174700  -0.956050
H    -3.131983  -0.576923  -0.254111
O    1.778737  -0.668561  1.070256
H    2.327859  -0.128973  0.467379
