22
Energy: -12019.9735048 eV PBE+vdW (tier 2 basis)
N    0.288749  1.237315  2.320957
C    0.851511  -0.080677  2.593779
C    1.155794  -0.875391  1.303829
O    0.773346  -0.555291  0.204094
H    -0.379415  1.157500  1.550450
H    1.022950  1.849004  1.962492
H    1.813164  0.076427  3.111652
C    -0.032387  -0.924035  3.546711
C    -1.403921  -1.378995  2.998718
C    -1.816546  -2.711212  3.637890
C    -2.498256  -0.323501  3.212082
H    -0.172146  -0.335330  4.465775
H    0.541471  -1.818028  3.845316
H    -1.301811  -1.552758  1.913337
H    -2.797203  -3.041245  3.268489
H    -1.890512  -2.616805  4.732306
H    -1.090415  -3.506195  3.416684
H    -3.442852  -0.642119  2.750087
H    -2.225251  0.653400  2.797049
H    -2.686066  -0.177286  4.286779
O    1.896702  -2.015184  1.456928
H    2.109093  -2.140593  2.398595
