22
Energy: -12020.0693222 eV PBE+vdW (tier 2 basis)
N    -0.561203  -2.790460  1.494597
C    -0.196521  -1.384898  1.610401
C    1.263485  -1.096152  1.211365
O    2.148866  -1.916469  1.243725
H    0.142055  -3.352832  1.980415
H    0.720279  0.714216  0.837693
H    -0.854426  -0.814252  0.932296
C    -0.415440  -0.889181  3.057808
C    -1.868660  -0.965047  3.555886
C    -1.920388  -0.665941  5.058549
C    -2.798738  -0.027293  2.778405
H    -0.051768  0.148361  3.152812
H    0.229354  -1.495763  3.714923
H    -2.212238  -1.998503  3.393288
H    -1.574278  0.356854  5.274384
H    -1.285448  -1.358737  5.628260
H    -2.944752  -0.756226  5.445329
H    -2.467130  1.020085  2.861355
H    -3.823479  -0.079173  3.170668
H    -2.851154  -0.283652  1.711364
O    1.539771  0.188808  0.826422
H    -0.517186  -3.083748  0.518054
