22
Energy: -12020.0063056 eV PBE+vdW (tier 2 basis)
N    0.502568  0.891362  1.559924
C    0.932161  -0.106864  2.532521
C    1.473795  -1.331450  1.779334
O    1.708501  -1.338802  0.592959
H    0.782562  1.828028  1.841203
H    0.936128  0.680623  0.658855
H    1.813753  0.231599  3.118330
C    -0.183397  -0.398473  3.569089
C    -1.567584  -0.773031  3.014886
C    -1.590672  -2.111920  2.268799
C    -2.597613  -0.763278  4.150936
H    -0.289330  0.517874  4.171370
H    0.151052  -1.165732  4.295355
H    -1.833923  0.017334  2.296006
H    -2.611871  -2.347444  1.939027
H    -1.254807  -2.940356  2.911803
H    -0.959485  -2.104012  1.371287
H    -3.607599  -0.964948  3.768743
H    -2.623046  0.207530  4.665977
H    -2.371248  -1.534548  4.903919
O    1.762488  -2.425033  2.535796
H    1.452566  -2.273460  3.446883
