22
Energy: -12020.2042536 eV PBE+vdW (tier 2 basis)
N    1.225188  -1.596730  0.906021
C    0.356136  -0.494852  1.310962
C    0.915889  0.463436  2.365027
O    0.695087  1.655793  2.411249
H    2.104132  -1.243706  0.528234
H    1.464620  -2.174946  1.712814
H    0.175036  0.138272  0.430721
C    -0.998657  -1.027112  1.825070
C    -1.794996  -1.862929  0.807790
C    -3.033553  -2.458855  1.487311
C    -2.185248  -1.053650  -0.433502
H    -1.606583  -0.168259  2.152500
H    -0.809766  -1.636629  2.724938
H    -1.145830  -2.690751  0.481696
H    -3.594694  -3.101017  0.794432
H    -3.717087  -1.668072  1.833134
H    -2.760611  -3.067712  2.360934
H    -1.306640  -0.710944  -0.995994
H    -2.778796  -0.167540  -0.160082
H    -2.791694  -1.661003  -1.119383
O    1.689551  -0.173842  3.294862
H    1.959515  0.517048  3.930265
