22
Energy: -12020.1016794 eV PBE+vdW (tier 2 basis)
N    -2.477505  -1.209933  4.073508
C    -1.136371  -0.762176  3.709630
C    -0.904899  0.755233  3.621514
O    0.186357  1.282553  3.562557
H    -2.715208  -0.881099  5.009291
H    -3.175596  -0.803335  3.450646
H    -0.454418  -1.091059  4.509337
C    -0.614239  -1.410173  2.407083
C    -1.382423  -1.067949  1.108965
C    -0.419689  -1.031018  -0.084902
C    -2.535387  -2.044119  0.832932
H    -0.609440  -2.499693  2.560580
H    0.433497  -1.095140  2.302797
H    -1.809781  -0.054489  1.214052
H    0.075226  -2.005274  -0.218278
H    0.363847  -0.274167  0.056895
H    -0.950587  -0.799901  -1.019098
H    -3.111011  -1.735317  -0.050907
H    -3.227636  -2.130545  1.679314
H    -2.142204  -3.053248  0.636373
O    -2.064315  1.477457  3.605035
H    -1.786219  2.411392  3.530677
