22
Energy: -12020.215771 eV PBE+vdW (tier 2 basis)
N    2.453760  -0.329414  1.089912
C    1.135669  -0.836905  1.485393
C    -0.011591  0.121953  1.163331
O    -0.957171  -0.124266  0.442799
H    2.478313  -0.130735  0.089219
H    2.655296  0.547362  1.573304
H    0.934346  -1.733039  0.883611
C    1.153444  -1.208144  2.976357
C    -0.167111  -1.741051  3.558168
C    -0.651325  -3.015108  2.854016
C    -0.013500  -1.971622  5.066235
H    1.463418  -0.318507  3.548408
H    1.950863  -1.957077  3.105693
H    -0.940608  -0.964773  3.419342
H    -0.884247  -2.841663  1.795418
H    -1.564474  -3.398852  3.329338
H    0.110330  -3.808011  2.910419
H    -0.959777  -2.302424  5.515815
H    0.302604  -1.055102  5.583936
H    0.740280  -2.747117  5.270937
O    0.145518  1.337295  1.771365
H    -0.620037  1.875198  1.491987
