26
Energy: -172746.719786 eV PBE+vdW (tier 2 basis)
C    -0.665441  -3.644850  0.742764
C    -0.478033  -2.191925  0.984735
O    0.645428  -1.638522  0.752272
H    -1.708187  -3.969907  0.807989
H    -0.043697  -4.221296  1.443205
H    -0.282625  -3.871259  -0.263761
N    -1.504871  -1.407872  1.416484
C    -2.515694  -1.734944  2.455069
C    -3.394048  -0.498232  2.609980
O    -2.871415  0.597068  3.080969
H    -1.257332  -0.418641  1.385894
H    -3.124104  -2.586459  2.127358
C    -1.850108  -2.080801  3.842815
C    -0.482127  -1.410624  3.850184
O    -0.419473  -0.141755  3.636495
O    0.547524  -2.141786  3.811917
H    -1.720626  -3.162447  3.940756
H    -2.471988  -1.733092  4.678783
N    -4.660255  -0.520292  2.294024
C    -5.606259  0.596866  2.437065
H    -5.028970  -1.385642  1.900774
H    -6.494632  0.233208  2.965940
H    -5.897262  0.947542  1.438843
H    -5.137857  1.408663  2.997203
H    -1.901336  0.456425  3.379092
Cd    1.603389  -0.685427  2.504149
