26
Energy: -172746.775591 eV PBE+vdW (tier 2 basis)
C    0.090160  0.356848  0.073516
C    0.127722  -0.077134  1.502287
O    1.237695  -0.565001  1.918239
H    0.904892  1.068978  -0.112346
H    -0.867865  0.801983  -0.215388
H    0.283133  -0.521199  -0.560722
N    -0.984221  0.068865  2.235915
C    -1.403400  -0.506641  3.539992
C    -0.814319  0.206913  4.771451
O    0.386556  0.022622  5.196503
H    -1.768779  0.449294  1.709848
H    -2.484877  -0.313266  3.549188
C    -1.281764  -2.037022  3.603693
C    -2.322844  -2.671193  2.661367
O    -2.143595  -3.988684  2.590855
O    -3.172278  -2.018809  2.095868
H    -1.485200  -2.391910  4.625655
H    -0.295057  -2.438847  3.318639
N    -1.619830  1.002082  5.444968
C    -1.276394  1.742717  6.664037
H    -2.578621  1.092589  5.112450
H    -1.781632  1.283744  7.523584
H    -1.622205  2.776769  6.554786
H    -0.195552  1.720721  6.816248
H    -2.838038  -4.384661  2.021924
Cd    1.794910  -0.888771  3.920993
