26
Energy: -172746.709717 eV PBE+vdW (tier 2 basis)
C    -0.279771  1.308253  -0.410477
C    0.085590  0.787120  0.925353
O    1.288496  0.775759  1.323927
H    0.059339  0.559391  -1.149490
H    0.260872  2.235235  -0.633403
H    -1.360085  1.426177  -0.544267
N    -0.869520  0.257946  1.769681
C    -2.076841  0.937575  2.254412
C    -1.788463  2.431409  2.549930
O    -0.636896  2.824870  2.921967
H    -0.472847  -0.421876  2.417769
H    -2.882074  0.869141  1.509771
C    -2.580697  0.210540  3.527043
C    -1.623663  0.068658  4.713925
O    -2.109161  -0.430488  5.825471
O    -0.410396  0.341513  4.721917
H    -2.892174  -0.810180  3.244467
H    -3.494503  0.707883  3.884442
N    -2.765605  3.314770  2.413313
C    -4.142009  3.107421  1.942055
H    -2.503497  4.268664  2.668773
H    -4.592780  4.091457  1.786860
H    -4.745924  2.570100  2.683986
H    -4.160272  2.573803  0.984322
H    -3.058859  -0.662902  5.789560
Cd    1.002849  1.451873  3.418192
