26
Energy: -172747.454638 eV PBE+vdW (tier 2 basis)
C    -0.476725  -2.519528  1.604400
C    -0.311740  -1.115026  2.094600
O    0.833983  -0.592060  2.014771
H    -0.157452  -2.562562  0.553815
H    -1.499462  -2.902012  1.686702
H    0.203581  -3.172368  2.168316
N    -1.422127  -0.504641  2.574974
C    -1.718844  0.854486  3.083011
C    -1.175393  2.023483  2.220500
O    0.006681  2.480809  2.292010
H    -2.246608  -1.098573  2.535932
H    -2.808097  0.917032  2.956005
C    -1.579365  1.044396  4.626196
C    -0.291713  0.826698  5.409361
O    -0.407940  0.648201  6.706329
O    0.868141  0.831732  4.970983
H    -2.342523  0.395509  5.082074
H    -1.899559  2.075015  4.861936
N    -2.048168  2.602382  1.409586
C    -1.720330  3.737845  0.538642
H    -3.009842  2.273105  1.402215
H    -2.524331  3.852906  -0.192879
H    -0.772453  3.549494  0.023898
H    -1.630119  4.657042  1.131470
H    -1.328413  0.640790  7.035016
Cd    1.587621  1.177414  2.956697
