26
Energy: -172746.878009 eV PBE+vdW (tier 2 basis)
C    -0.830702  -0.557730  -0.439934
C    -0.588048  -0.587641  1.030216
O    0.537952  -0.144619  1.442993
H    0.053202  -0.921538  -0.976280
H    -0.980018  0.494763  -0.731218
H    -1.717600  -1.130026  -0.734864
N    -1.557793  -1.060332  1.835348
C    -1.743456  -0.775090  3.270720
C    -1.191736  -1.902693  4.163002
O    0.071819  -1.959782  4.409592
H    -2.381120  -1.412792  1.349878
H    -1.135418  0.124946  3.489165
C    -3.181055  -0.320167  3.530298
C    -3.348118  1.110488  2.991258
O    -4.628924  1.468966  2.998371
O    -2.404806  1.786797  2.634665
H    -3.386417  -0.286593  4.611238
H    -3.937664  -0.980287  3.078962
N    -2.002534  -2.797823  4.680383
C    -1.612582  -3.917549  5.547528
H    -2.995786  -2.706035  4.472885
H    -2.173169  -3.850683  6.487360
H    -0.540629  -3.869972  5.747518
H    -1.859222  -4.862122  5.047471
H    -4.712714  2.397872  2.694561
Cd    1.295940  -0.584114  3.360071
