26
Energy: -172746.404695 eV PBE+vdW (tier 2 basis)
C    0.952669  -0.550229  0.828721
C    -0.114187  0.485671  0.663425
O    -0.054147  1.378263  -0.200750
H    0.743712  -1.280045  1.617994
H    1.900724  -0.040404  1.050039
H    1.091896  -1.070471  -0.127959
N    -1.194884  0.424370  1.508132
C    -2.224005  1.459267  1.620678
C    -3.157650  1.546215  0.384407
O    -4.451817  1.529803  0.519942
H    -1.247725  -0.347342  2.166233
H    -2.862816  1.117197  2.446718
C    -1.597408  2.828684  2.022014
C    -2.467050  3.823351  2.754916
O    -1.910578  4.902059  3.241710
O    -3.698220  3.723319  2.976465
H    -1.161628  3.332871  1.144449
H    -0.742959  2.610489  2.683596
N    -2.622557  1.594534  -0.805724
C    -3.343967  1.660421  -2.075108
H    -1.564767  1.551157  -0.798968
H    -3.467997  0.646875  -2.481080
H    -2.744860  2.247637  -2.778676
H    -4.329175  2.113726  -1.937503
H    -0.944304  4.959023  3.094444
Cd    -5.308545  2.621807  2.090056
