26
Energy: -172746.977521 eV PBE+vdW (tier 2 basis)
C    -0.511654  0.756948  0.150418
C    -0.412463  -0.019209  1.422103
O    0.657284  0.094534  2.101211
H    -0.398541  1.826449  0.375283
H    -1.448925  0.592915  -0.391424
H    0.332841  0.478886  -0.496435
N    -1.452783  -0.810930  1.753514
C    -1.609725  -1.810593  2.829706
C    -1.909989  -1.139694  4.186009
O    -1.042714  -0.427310  4.795019
H    -2.227071  -0.778728  1.094814
H    -2.506938  -2.367183  2.544972
C    -0.427150  -2.851834  2.851058
C    0.041022  -3.274672  4.228500
O    1.243316  -2.575443  4.607008
O    -0.447625  -4.068197  4.964586
H    0.418801  -2.487934  2.257630
H    -0.780539  -3.768183  2.362767
N    -3.100382  -1.302034  4.735311
C    -4.256072  -2.075544  4.254118
H    -3.211121  -0.822050  5.631012
H    -5.047533  -1.985003  5.003151
H    -4.005558  -3.138497  4.153122
H    -4.639265  -1.673174  3.308585
H    1.544764  -2.950767  5.465790
Cd    1.014457  -0.343905  4.152641
