26
Energy: -172747.352103 eV PBE+vdW (tier 2 basis)
C    -0.768810  0.124866  0.119439
C    -0.412887  0.269348  1.564716
O    0.689812  0.806178  1.861824
H    -0.005248  -0.493237  -0.372847
H    -0.723895  1.115886  -0.353221
H    -1.757527  -0.313291  -0.052695
N    -1.321431  -0.174061  2.468159
C    -1.359960  -0.121183  3.942292
C    -0.888364  1.224557  4.546974
O    0.300120  1.421865  4.958081
H    -2.156582  -0.574532  2.048065
H    -2.435036  -0.149969  4.164967
C    -0.841622  -1.392481  4.684997
C    0.514029  -2.030249  4.413244
O    0.634524  -3.316822  4.649984
O    1.544796  -1.458501  4.024517
H    -1.603719  -2.169320  4.527529
H    -0.860901  -1.182785  5.769252
N    -1.791278  2.178794  4.714086
C    -3.228782  2.168077  4.415029
H    -1.417783  3.025333  5.148711
H    -3.603723  3.187290  4.544854
H    -3.774560  1.515260  5.109418
H    -3.415412  1.869771  3.377191
H    -0.187376  -3.752120  4.950050
Cd    1.853066  0.657101  3.669597
