26
Energy: -172746.383578 eV PBE+vdW (tier 2 basis)
C    0.499025  -0.541760  -0.987655
C    0.163475  0.293461  0.200473
O    1.162307  0.601075  0.967992
H    1.267420  -0.034125  -1.586508
H    -0.379094  -0.751767  -1.607385
H    0.938160  -1.488811  -0.641434
N    -1.096259  0.658594  0.393910
C    -1.768054  1.282265  1.525992
C    -3.229212  0.665534  1.422143
O    -3.530188  0.147308  0.351384
H    -1.838139  0.264034  -0.228415
H    -1.324026  0.951710  2.482127
C    -1.863793  2.847686  1.434570
C    -1.360729  3.634711  2.627092
O    -2.006420  4.679888  3.057458
O    -0.297807  3.376455  3.255521
H    -2.898504  3.139825  1.209431
H    -1.274360  3.196632  0.569032
N    -4.042357  0.778635  2.481189
C    -3.768905  1.337067  3.801286
H    -4.975072  0.398551  2.319347
H    -4.398457  0.824238  4.535852
H    -4.001387  2.410581  3.854545
H    -2.728197  1.166729  4.104131
H    -2.826414  4.878023  2.560266
Cd    1.045621  1.914501  2.546508
