26
Energy: -172747.333049 eV PBE+vdW (tier 2 basis)
C    0.135634  -0.506571  -0.400218
C    -0.157628  0.154034  0.910090
O    0.720537  0.085189  1.814805
H    1.024492  -0.034589  -0.841763
H    -0.692470  -0.464365  -1.115204
H    0.398249  -1.556527  -0.210722
N    -1.358027  0.771038  1.025074
C    -2.105336  1.408904  2.132644
C    -1.536963  2.776010  2.578886
O    -0.321992  2.965063  2.900147
H    -1.898276  0.733352  0.164921
H    -3.053771  1.655901  1.640097
C    -2.594936  0.462083  3.272644
C    -1.752153  -0.014341  4.450568
O    -2.317086  -0.882181  5.261451
O    -0.611572  0.353569  4.762484
H    -3.008036  -0.432616  2.780371
H    -3.463428  0.961145  3.736875
N    -2.363802  3.813021  2.603324
C    -3.772900  3.903322  2.197707
H    -1.922238  4.677927  2.921604
H    -4.412428  3.257097  2.811496
H    -3.898147  3.670233  1.132508
H    -4.097114  4.936147  2.353358
H    -3.224997  -1.145196  5.011919
Cd    0.906386  1.323352  3.545938
