26
Energy: -172746.421954 eV PBE+vdW (tier 2 basis)
C    -1.390076  -1.810724  2.052085
C    -0.272415  -0.840480  1.994789
O    0.886529  -1.235586  1.613627
H    -1.082674  -2.609273  2.750212
H    -1.533723  -2.302530  1.080499
H    -2.323268  -1.374614  2.420420
N    -0.420849  0.459908  2.369487
C    -1.483370  1.375060  1.960623
C    -0.997858  2.126536  0.673421
O    0.192393  1.988091  0.172573
H    0.437950  0.910239  2.694762
H    -2.350839  0.768724  1.661578
C    -1.888794  2.294812  3.136749
C    -3.269998  2.921596  2.988286
O    -3.776101  3.247894  4.166125
O    -3.832386  3.103430  1.914207
H    -1.164206  3.112782  3.278441
H    -1.876449  1.703810  4.061942
N    -1.851040  2.940260  0.115485
C    -1.627089  3.724741  -1.099494
H    -2.751622  3.067832  0.650906
H    -1.222707  4.711857  -0.837417
H    -2.591108  3.858963  -1.599834
H    -0.924921  3.211550  -1.762033
H    -4.645121  3.688691  4.046098
Cd    1.575226  0.395727  0.373442
