21
Energy: -14946.357995 eV PBE+vdW (tier 2 basis)
N    0.757852  -1.657344  1.172366
C    0.025126  -0.395830  1.271796
C    0.959440  0.752687  1.674417
O    1.473647  1.370813  0.607941
H    1.374177  -1.819677  1.968950
H    1.326368  -1.694985  0.327222
H    2.118812  2.040443  0.916846
H    -0.353934  -0.158708  0.269838
C    -1.212416  -0.535684  2.189977
C    -0.972048  -1.107997  3.548016
N    -0.033756  -0.586660  4.423204
C    -1.576348  -2.143529  4.214924
C    -0.047968  -1.260144  5.572710
N    -0.988951  -2.209776  5.463306
H    -1.921655  -1.193785  1.673975
H    -1.701782  0.445993  2.291969
H    0.609544  0.174740  4.087549
H    -2.361991  -2.821662  3.909437
H    0.581646  -1.081574  6.435100
H    -1.225597  -2.874259  6.193970
O    1.279833  1.052939  2.824487
