21
Energy: -14946.2849414 eV PBE+vdW (tier 2 basis)
N    0.562722  0.289141  0.153705
C    0.004222  0.059943  1.475365
C    1.002952  -0.655789  2.387814
O    0.703849  -1.292685  3.394306
H    0.046654  1.014601  -0.342339
H    1.539057  0.575825  0.197264
H    2.848783  -0.932483  2.660523
H    -0.234959  0.991575  2.037757
C    -1.314390  -0.748768  1.303974
C    -2.270218  -0.738424  2.450364
N    -1.900333  -1.099829  3.733915
C    -3.611324  -0.451598  2.511720
C    -2.947762  -1.041066  4.554072
N    -4.001668  -0.650900  3.821793
H    -1.059880  -1.784687  1.034289
H    -1.833638  -0.330621  0.432934
H    -0.891780  -1.315643  3.926439
H    -4.306961  -0.138739  1.744373
H    -2.952955  -1.260571  5.614187
H    -4.941390  -0.523851  4.185386
O    2.270006  -0.480293  2.012771
