21
Energy: -14946.2496198 eV PBE+vdW (tier 2 basis)
N    -0.815540  0.879722  0.836450
C    0.034566  0.166061  1.857983
C    1.495136  -0.000496  1.433883
O    2.319106  -0.517604  2.141550
H    -0.593905  1.878540  0.783628
H    -0.671250  0.485572  -0.100108
H    2.661567  0.348404  -0.026185
H    0.028093  0.795088  2.759620
C    -0.608967  -1.195530  2.187701
C    -2.023258  -1.039949  2.657807
N    -2.845275  -0.095731  2.061322
C    -2.738127  -1.710841  3.619555
C    -4.030944  -0.188436  2.647505
N    -4.000523  -1.159178  3.590201
H    0.009149  -1.682264  2.950891
H    -0.566401  -1.840733  1.293497
H    -1.878681  0.689329  1.186337
H    -2.469613  -2.508715  4.300023
H    -4.906265  0.410123  2.424550
H    -4.780068  -1.434552  4.178664
O    1.716199  0.488191  0.187125
