21
Energy: -14946.3268726 eV PBE+vdW (tier 2 basis)
N    0.894372  -1.528189  1.322706
C    0.049749  -0.327045  1.279632
C    0.925338  0.853148  1.725557
O    1.436493  1.499072  0.673933
H    0.371037  -2.331091  0.968435
H    1.701491  -1.423130  0.705611
H    2.017447  2.216555  1.002777
H    -0.320375  -0.070449  0.271409
C    -1.198033  -0.518963  2.175975
C    -0.947021  -1.144677  3.509627
N    0.005269  -0.666874  4.389935
C    -1.544177  -2.207716  4.137927
C    0.014041  -1.394816  5.503869
N    -0.930854  -2.337103  5.369255
H    -1.908047  -1.158681  1.634987
H    -1.702894  0.450271  2.307239
H    0.630535  0.119340  4.092393
H    -2.340349  -2.867016  3.818930
H    0.662372  -1.258831  6.359998
H    -1.154249  -3.034773  6.072173
O    1.170854  1.175967  2.881632
