21
Energy: -14946.0379811 eV PBE+vdW (tier 2 basis)
N    0.446778  -0.020404  -0.004190
C    -0.025232  0.081975  1.373726
C    1.041804  -0.351577  2.389715
O    1.059000  -1.419476  2.972532
H    1.160570  0.679726  -0.203568
H    0.852136  -0.938309  -0.195417
H    2.699241  0.229357  3.097443
H    -0.264988  1.139394  1.561670
C    -1.297146  -0.783081  1.516435
C    -2.015187  -0.632478  2.812162
N    -3.129772  0.182780  2.971424
C    -1.789902  -1.180899  4.051381
C    -3.575946  0.138981  4.233173
N    -2.762938  -0.689026  4.897250
H    -1.018424  -1.838846  1.396173
H    -1.961513  -0.525118  0.681121
H    -3.565017  0.726101  2.230496
H    -1.012039  -1.860276  4.374394
H    -4.431203  0.666372  4.635851
H    -2.859119  -0.919230  5.882363
O    2.003723  0.588383  2.510577
