21
Energy: -14945.9807873 eV PBE+vdW (tier 2 basis)
N    1.232566  -0.895764  1.178683
C    0.206040  -0.040199  0.543261
C    -0.719881  0.623269  1.587356
O    -0.541997  0.237860  2.874088
H    1.758483  -1.401030  0.460480
H    0.190592  -0.412006  2.902200
H    1.933872  -0.317135  1.648846
H    0.636619  0.782771  -0.048642
C    -0.675654  -0.881566  -0.407722
C    -1.517079  -1.885959  0.305891
N    -1.013347  -2.706012  1.306638
C    -2.847233  -2.200969  0.203427
C    -1.978844  -3.482744  1.805730
N    -3.098687  -3.189412  1.134295
H    -0.035607  -1.381745  -1.152271
H    -1.336821  -0.203781  -0.959586
H    -0.051443  -2.597702  1.651530
H    -3.620575  -1.798917  -0.437685
H    -1.880047  -4.207426  2.603919
H    -3.999849  -3.629055  1.299333
O    -1.579109  1.401522  1.262230
