21
Energy: -14946.1172857 eV PBE+vdW (tier 2 basis)
N    0.402993  -1.362556  0.212100
C    0.215441  -0.255366  1.148241
C    1.556254  0.440003  1.467943
O    1.917016  1.473667  0.696032
H    1.195575  -1.954320  0.461982
H    0.547251  -1.042259  -0.744454
H    1.210586  1.719695  0.072071
H    -0.446009  0.475155  0.658499
C    -0.546071  -0.719144  2.416155
C    -0.009329  -1.927820  3.110150
N    1.304398  -2.021510  3.536593
C    -0.619067  -3.093134  3.500644
C    1.507447  -3.182396  4.156757
N    0.340923  -3.845455  4.148779
H    -1.574502  -0.944277  2.109319
H    -0.599036  0.116402  3.131940
H    1.977670  -1.257676  3.263477
H    -1.636750  -3.438570  3.376264
H    2.437842  -3.532475  4.585680
H    0.195774  -4.762817  4.559675
O    2.342594  0.056853  2.326152
