21
Energy: -14946.2421657 eV PBE+vdW (tier 2 basis)
N    0.708854  -0.651086  0.096449
C    0.016997  -0.428291  1.338968
C    0.981402  -0.453197  2.534022
O    0.630757  -0.271187  3.699844
H    0.127100  -0.455985  -0.714881
H    1.111650  -1.582359  0.008950
H    2.774854  -0.696269  3.029612
H    -0.372369  0.604297  1.317384
C    -1.206093  -1.386409  1.617828
C    -2.272053  -0.855166  2.518743
N    -1.990494  -0.266148  3.739254
C    -3.638982  -0.821041  2.389049
C    -3.115891  0.114160  4.341033
N    -4.131690  -0.221372  3.531822
H    -0.834873  -2.348154  2.005467
H    -1.666733  -1.601910  0.646218
H    -0.982162  -0.143792  4.024662
H    -4.287547  -1.174431  1.598456
H    -3.200963  0.607787  5.300812
H    -5.112151  -0.052615  3.736063
O    2.243389  -0.702834  2.206245
