21
Energy: -14946.3624321 eV PBE+vdW (tier 2 basis)
N    1.365496  -1.450556  1.461847
C    0.234020  -0.505659  1.291784
C    0.606167  0.888497  1.811511
O    1.863483  1.224239  1.437545
H    2.237221  -0.994600  1.185095
H    1.245695  -2.252550  0.839549
H    2.032169  2.137137  1.745898
H    -0.017202  -0.355444  0.225500
C    -1.031157  -1.030123  1.998460
C    -0.834629  -1.237511  3.463363
N    0.361469  -1.738955  3.947614
C    -1.630661  -1.022875  4.558579
C    0.322639  -1.825341  5.277293
N    -0.889723  -1.399463  5.662276
H    -1.325430  -1.980574  1.526191
H    -1.856373  -0.326623  1.841442
H    1.134335  -1.881129  3.246017
H    -2.634114  -0.628026  4.643345
H    1.113493  -2.173142  5.929235
H    -1.206708  -1.358799  6.626179
O    -0.135189  1.605499  2.442276
