21
Energy: -14946.0400267 eV PBE+vdW (tier 2 basis)
N    0.547468  -1.345727  0.093632
C    0.110628  -0.199733  0.886864
C    1.202791  0.597575  1.633679
O    1.036222  1.156212  2.695428
H    1.137908  -1.038709  -0.679500
H    1.121995  -1.976442  0.656406
H    2.991442  1.169853  1.435130
H    -0.340369  0.526038  0.187791
C    -0.965197  -0.618598  1.905800
C    -2.223340  -1.099701  1.269350
N    -3.477898  -0.835847  1.805540
C    -2.461626  -1.845560  0.140471
C    -4.442044  -1.383038  1.054092
N    -3.830633  -1.997697  0.037118
H    -1.173661  0.232378  2.567832
H    -0.557625  -1.411668  2.554392
H    -3.648620  -0.298062  2.651314
H    -1.752798  -2.258942  -0.564759
H    -5.508272  -1.333347  1.234031
H    -4.313160  -2.503527  -0.700177
O    2.357787  0.619543  0.932566
