21
Energy: -14946.3931078 eV PBE+vdW (tier 2 basis)
N    1.906935  -1.492191  0.951393
C    0.770857  -0.590949  1.227460
C    1.060840  0.835967  0.737070
O    -0.069370  1.566187  0.651205
H    2.776521  -0.964725  1.092907
H    1.908620  -1.748029  -0.038088
H    0.177369  2.468137  0.361654
H    -0.116418  -0.969499  0.700828
C    0.463936  -0.543021  2.748875
C    0.197022  -1.894879  3.323281
N    0.937233  -2.984617  2.900403
C    -0.669027  -2.362762  4.279118
C    0.551955  -4.081224  3.549247
N    -0.422224  -3.717605  4.398719
H    -0.394923  0.113140  2.932399
H    1.325731  -0.092173  3.268541
H    1.592194  -2.790983  2.077552
H    -1.420270  -1.858694  4.872491
H    0.943082  -5.082592  3.421797
H    -0.900857  -4.350224  5.032886
O    2.174794  1.238734  0.492260
