21
Energy: -14946.2654925 eV PBE+vdW (tier 2 basis)
N    0.591310  -1.688798  0.248800
C    0.492588  -0.198811  0.478792
C    0.669151  0.134366  1.967527
O    0.299765  1.167364  2.459658
H    1.287517  -2.108811  0.874775
H    0.837908  -1.903000  -0.722345
H    1.469953  -0.569164  3.545867
H    1.328531  0.291778  -0.042269
C    -0.847691  0.320865  -0.066353
C    -2.012806  -0.416819  0.519656
N    -1.922357  -1.786836  0.721188
C    -3.253168  0.012266  0.921792
C    -3.079796  -2.180420  1.234945
N    -3.907757  -1.117376  1.362303
H    -0.841257  0.230880  -1.164518
H    -0.912021  1.390449  0.163695
H    -0.458899  -2.071605  0.473595
H    -3.712073  0.992379  0.937439
H    -3.346874  -3.192108  1.516388
H    -4.855577  -1.148348  1.723316
O    1.333551  -0.854251  2.619747
