21
Energy: -14945.9750885 eV PBE+vdW (tier 2 basis)
N    -0.352006  0.879967  0.486451
C    0.087061  -0.060241  1.509391
C    1.270944  -0.902540  0.968439
O    1.937641  -0.316502  -0.029441
H    -0.974180  0.474578  -0.211907
H    1.442259  0.519869  -0.226025
H    -0.775380  1.724925  0.863473
H    0.517927  0.539081  2.327596
C    -0.975114  -0.980922  2.171930
C    -1.585694  -1.998108  1.267528
N    -2.886583  -1.913217  0.782659
C    -1.080420  -3.164302  0.741317
C    -3.176677  -2.968372  0.008858
N    -2.079098  -3.730784  -0.022316
H    -1.762688  -0.353872  2.612393
H    -0.485156  -1.512235  2.998278
H    -3.548110  -1.175766  1.009667
H    -0.097077  -3.602632  0.857521
H    -4.116755  -3.165834  -0.490256
H    -2.001531  -4.604873  -0.535604
O    1.565428  -1.988225  1.422018
