21
Energy: -14946.0072044 eV PBE+vdW (tier 2 basis)
N    0.474209  -0.687253  -0.159646
C    -0.260933  -0.220690  0.993234
C    0.501491  0.451493  2.151693
O    -0.058713  1.047865  3.052029
H    0.845133  0.088046  -0.706344
H    1.264706  -1.275798  0.103728
H    2.236587  0.747987  2.833891
H    -0.965274  0.552879  0.646875
C    -1.093888  -1.416281  1.554988
C    -1.931931  -1.111445  2.744699
N    -2.965215  -0.184199  2.743114
C    -1.881590  -1.593498  4.027148
C    -3.509644  -0.080040  3.959548
N    -2.860502  -0.940198  4.748932
H    -0.411090  -2.234867  1.820890
H    -1.713111  -1.786487  0.725737
H    -3.240500  0.385374  1.948381
H    -1.227445  -2.328898  4.475744
H    -4.323627  0.572172  4.249043
H    -3.064679  -1.081570  5.733919
O    1.836085  0.288670  2.068176
