21
Energy: -14946.0377922 eV PBE+vdW (tier 2 basis)
N    -0.115945  -0.078504  -0.080879
C    -0.188221  0.017494  1.374539
C    1.228425  0.260850  1.964731
O    2.162217  0.481965  1.044785
H    -0.848800  0.438577  -0.560785
H    -0.121768  -1.038727  -0.423540
H    1.675334  0.423909  0.174616
H    -0.753434  0.930232  1.621745
C    -0.879008  -1.206955  2.040825
C    -0.785667  -1.279169  3.526422
N    -1.289197  -0.317807  4.390612
C    -0.209959  -2.227049  4.332193
C    -1.002031  -0.628814  5.659480
N    -0.352795  -1.795355  5.634678
H    -0.423576  -2.126522  1.646296
H    -1.934144  -1.223586  1.728508
H    -1.733871  0.551072  4.111558
H    0.310886  -3.140918  4.080739
H    -1.254722  -0.050101  6.538561
H    -0.011730  -2.279976  6.459756
O    1.435006  0.272384  3.162163
