21
Energy: -14946.3826247 eV PBE+vdW (tier 2 basis)
N    0.453232  -1.137778  0.038131
C    -0.011128  -0.362519  1.240182
C    1.238892  0.001626  2.045337
O    2.306044  -0.543906  1.860493
H    1.289358  -1.678936  0.313533
H    0.736571  -0.517002  -0.726254
H    1.792077  1.108433  3.476709
H    -0.521927  0.542636  0.888303
C    -0.981075  -1.229594  2.075745
C    -2.112165  -1.770340  1.255919
N    -1.857537  -2.293271  -0.002366
C    -3.450440  -1.902170  1.536690
C    -3.015010  -2.730430  -0.477077
N    -3.997292  -2.514866  0.430381
H    -1.359071  -0.618352  2.903631
H    -0.411638  -2.058435  2.529008
H    -0.406980  -1.779512  -0.267336
H    -4.043072  -1.630100  2.400742
H    -3.177923  -3.195328  -1.442374
H    -4.973477  -2.766776  0.315247
O    0.975562  0.937619  2.963357
