30
Energy: -609761.4822832  eV PBE+vdW (tier 2 basis)
C    -0.900060  -0.609801  0.228356
C    -0.595295  -0.157663  1.614185
O    0.518060  0.434839  1.844297
H    -0.095842  -1.267305  -0.128203
H    -0.906484  0.268849  -0.433412
H    -1.860771  -1.128446  0.146457
N    -1.495460  -0.353739  2.579473
C    -1.395182  0.123009  3.963539
C    -0.435984  -0.798456  4.744299
O    0.813540  -0.481745  4.807309
H    -2.337961  -0.884140  2.347646
H    -0.901929  1.106292  3.939364
C    -2.809984  0.344531  4.576028
C    -3.740822  -0.820454  4.519037
N    -4.515947  -1.136704  3.405743
C    -4.011294  -1.832161  5.426117
C    -5.215653  -2.282374  3.713894
N    -4.910518  -2.731410  4.909826
H    -3.239746  1.218710  4.064269
H    -2.670423  0.648906  5.622302
H    -4.770256  -0.495670  2.657966
H    -3.660261  -1.917737  6.453255
H    -5.929237  -2.728699  3.027388
N    -0.892363  -1.888355  5.306888
C    -0.107499  -2.869652  6.058351
H    -1.910815  -2.054289  5.219696
H    0.053428  -3.764456  5.442888
H    -0.673332  -3.155457  6.951728
H    0.853178  -2.438689  6.348731
Pb    2.098914  0.689268  3.408579
