30
Energy: -609761.5714670  eV PBE+vdW (tier 2 basis)
C    -0.619244  -1.350306  0.302961
C    -0.534564  -0.216759  1.264620
O    0.572744  0.425085  1.373761
H    -0.406766  -0.966669  -0.706068
H    -1.597846  -1.841178  0.302144
H    0.163390  -2.086145  0.531663
N    -1.613063  0.121503  1.967358
C    -1.780223  1.303021  2.828327
C    -1.136787  1.079202  4.214451
O    0.137973  1.218816  4.341225
H    -2.462060  -0.437543  1.840725
H    -1.197385  2.121711  2.377990
C    -3.255045  1.741558  2.824074
C    -4.244911  0.672079  3.193209
N    -5.604903  0.896397  3.125501
C    -4.141459  -0.656927  3.599444
C    -6.239445  -0.262084  3.485665
N    -5.380109  -1.215213  3.777174
H    -3.470581  2.118025  1.810545
H    -3.342114  2.618851  3.486011
H    -6.061583  1.764269  2.859015
H    -3.250697  -1.255895  3.779766
H    -7.321461  -0.346610  3.518672
N    -1.889813  0.783510  5.245693
C    -1.431263  0.554515  6.616549
H    -2.891916  0.638888  5.051230
H    -1.587336  -0.499389  6.880614
H    -2.023463  1.179479  7.295068
H    -0.373138  0.808514  6.702812
Pb    1.850064  1.389294  2.915801
