30
Energy: -609761.4814624  eV PBE+vdW (tier 2 basis)
C    -0.862206  0.035128  0.296521
C    -0.561382  0.210411  1.744693
O    0.559800  0.728103  2.088742
H    -1.833315  -0.435698  0.112379
H    -0.069345  -0.562198  -0.173450
H    -0.842241  1.022823  -0.187272
N    -1.473339  -0.148354  2.650867
C    -1.379826  0.059105  4.100692
C    -0.445725  -1.010436  4.703267
O    0.809728  -0.737704  4.828036
H    -2.321467  -0.611427  2.317719
H    -0.868833  1.019945  4.264071
C    -2.797186  0.191149  4.733086
C    -3.745979  -0.928470  4.461778
N    -4.510260  -1.032143  3.301861
C    -4.043928  -2.078638  5.174812
C    -5.230377  -2.202645  3.396499
N    -4.948668  -2.858753  4.499052
H    -3.207756  1.150832  4.384704
H    -2.663054  0.299250  5.818092
H    -4.743295  -0.266962  2.673653
H    -3.708322  -2.347799  6.175095
H    -5.940302  -2.510428  2.634270
N    -0.928563  -2.174773  5.055513
C    -0.169849  -3.293670  5.617703
H    -1.950170  -2.299421  4.936937
H    -0.735286  -3.709326  6.459049
H    0.807993  -2.949189  5.960932
H    -0.046927  -4.075458  4.856766
Pb    2.129079  0.650745  3.683931
