30
Energy: -609761.3875554  eV PBE+vdW (tier 2 basis)
C    -0.448525  0.213571  -0.151839
C    -0.384327  -0.173986  1.293906
O    0.640088  -0.421466  1.919909
H    -1.396544  -0.062937  -0.628485
H    0.388545  -0.245594  -0.687055
H    -0.331854  1.305017  -0.231634
N    -1.606577  -0.265676  1.984176
C    -1.487185  -0.349618  3.419129
C    -0.864294  -1.702535  3.829851
O    -0.171472  -1.829703  4.905943
H    -2.440659  0.152098  1.578898
H    -0.760103  0.403999  3.770729
C    -2.839093  -0.078843  4.147015
C    -2.574551  -0.157391  5.612944
N    -2.907196  -1.226092  6.406694
C    -1.694716  0.595047  6.384921
C    -2.207410  -1.155361  7.572767
N    -1.450292  -0.058067  7.595845
H    -3.609711  -0.797797  3.837174
H    -3.190904  0.925357  3.871662
H    -3.577389  -1.956279  6.169738
H    -1.333529  1.604960  6.196649
H    -2.286121  -1.890133  8.368763
N    -1.127170  -2.747919  3.077743
C    -0.594360  -4.097814  3.257739
H    -1.623740  -2.535346  2.210414
H    0.324283  -4.215883  2.667320
H    -1.338694  -4.821487  2.911063
H    -0.372131  -4.271971  4.313227
Pb    0.744630  -0.551147  6.508800
