30
Energy: -609761.5472012  eV PBE+vdW (tier 2 basis)
C    0.589944  -0.380630  1.252536
C    -0.095174  -0.483462  2.576515
O    0.081371  -1.534724  3.304475
H    0.241981  -1.203036  0.611071
H    1.673782  -0.505557  1.379067
H    0.393230  0.569272  0.745868
N    -0.890287  0.502137  2.953186
C    -1.802711  0.614183  4.086238
C    -2.885119  1.609214  3.540759
O    -2.562661  2.294461  2.564786
H    -1.112636  1.288735  2.299003
H    -2.214541  -0.372676  4.332049
C    -1.133769  1.245471  5.357200
C    0.055801  0.454460  5.760451
N    1.345108  0.781100  5.388230
C    0.152621  -0.820457  6.281514
C    2.163591  -0.266000  5.629799
N    1.459971  -1.274449  6.173369
H    -1.874948  1.257569  6.166427
H    -0.867965  2.290537  5.147470
H    1.645163  1.690964  5.041021
H    -0.626740  -1.424008  6.737277
H    3.235948  -0.255951  5.460642
N    -4.067616  1.699593  4.163152
C    -4.579803  0.943130  5.300377
H    -4.680060  2.410520  3.764587
H    -5.653077  0.776097  5.160158
H    -4.436721  1.484503  6.246245
H    -4.103436  -0.041190  5.366809
Pb    1.143755  -3.015808  4.567718
