30
Energy: -609761.3965440  eV PBE+vdW (tier 2 basis)
C    0.137151  -0.568552  -0.323062
C    0.094133  -0.282637  1.138144
O    1.187769  -0.037184  1.757700
H    0.575772  0.302550  -0.832415
H    -0.847432  -0.777067  -0.754196
H    0.809347  -1.416015  -0.513244
N    -1.087017  -0.260689  1.761681
C    -1.365360  0.195261  3.135047
C    -1.089498  -0.953432  4.127212
O    0.122318  -1.327992  4.336788
H    -1.902051  -0.471840  1.187804
H    -0.634814  0.984258  3.377240
C    -2.773018  0.813257  3.155334
C    -3.135596  1.422508  4.473790
N    -4.352303  2.036773  4.701337
C    -2.439706  1.584252  5.663273
C    -4.332780  2.523951  5.980707
N    -3.189883  2.259838  6.584001
H    -3.514125  0.054080  2.836739
H    -2.784062  1.581564  2.362877
H    -5.116919  2.140834  4.040861
H    -1.432315  1.258015  5.911537
H    -5.175219  3.054116  6.414133
N    -2.087471  -1.533458  4.750032
C    -1.982872  -2.613560  5.732961
H    -3.005495  -1.101120  4.640998
H    -0.986786  -3.057671  5.690063
H    -2.741277  -3.371298  5.506977
H    -2.169287  -2.208133  6.736378
Pb    2.152797  -0.652606  3.671304
