30
Energy: -609762.2374948  eV PBE+vdW (tier 2 basis)
C    1.277635  2.117136  2.887594
C    -0.218321  2.193353  2.909279
O    -0.772702  2.984069  3.726197
H    1.644612  1.997071  3.914897
H    1.671887  3.076548  2.522237
H    1.674158  1.310534  2.262192
N    -0.876407  1.387938  2.049968
C    -2.304976  1.148846  1.766993
C    -3.023397  2.384804  1.202446
O    -2.881395  3.544597  1.692536
H    -0.255753  0.827753  1.472056
H    -2.279113  0.410055  0.956754
C    -3.105843  0.436156  2.910552
C    -3.270601  1.229404  4.159628
N    -2.516128  1.055845  5.292134
C    -4.022041  2.369702  4.413366
C    -2.767777  2.084128  6.154025
N    -3.673167  2.911778  5.651970
H    -2.604026  -0.518913  3.116460
H    -4.094729  0.181369  2.502884
H    -1.878903  0.283019  5.472973
H    -4.875866  2.743915  3.851082
H    -2.282724  2.182807  7.120438
N    -3.829908  2.213332  0.159586
C    -4.092203  0.999799  -0.625194
H    -4.285687  3.071206  -0.153382
H    -4.805026  1.260106  -1.412455
H    -4.542449  0.209846  -0.012411
H    -3.177456  0.631848  -1.107612
Pb    -2.505695  4.479950  3.807805
