30
Energy: -609761.4799125  eV PBE+vdW (tier 2 basis)
C    -0.685207  -1.598835  1.644248
C    -0.478764  -0.147441  1.906518
O    0.713388  0.265512  2.179124
H    -0.445287  -1.844187  0.600363
H    -1.706791  -1.927500  1.849352
H    0.012451  -2.153298  2.283843
N    -1.471883  0.747153  1.963771
C    -2.735445  0.887518  1.197482
C    -3.235949  -0.406190  0.510274
O    -2.725774  -0.804517  -0.551867
H    -1.142358  1.652563  2.304155
H    -3.495242  1.250266  1.902139
C    -2.495695  2.016809  0.119017
C    -1.127733  1.894971  -0.460147
N    -0.739650  0.794931  -1.189605
C    0.038927  2.573871  -0.168726
C    0.599397  0.781780  -1.294605
N    1.121657  1.864278  -0.682979
H    -2.595657  2.998396  0.599451
H    -3.283715  1.947627  -0.642466
H    -1.429683  0.025246  -1.355550
H    0.162249  3.537448  0.317733
H    1.164198  0.024769  -1.829781
N    -4.263331  -1.013698  1.117136
C    -4.933057  -2.203329  0.589909
H    -4.641184  -0.602035  1.965613
H    -4.901691  -3.009689  1.332309
H    -4.421243  -2.518898  -0.322472
H    -5.979579  -1.969596  0.360032
Pb    2.431652  1.372080  1.221732
