30
Energy: -609761.6154966  eV PBE+vdW (tier 2 basis)
C    -3.635127  -0.297835  0.927497
C    -2.709392  -0.511437  2.085539
O    -3.117726  -0.687748  3.242411
H    -4.460173  -1.017362  0.989407
H    -3.147454  -0.375260  -0.050304
H    -4.081122  0.703460  1.019422
N    -1.359061  -0.527569  1.809758
C    -0.325132  -0.553338  2.838209
C    -0.264619  -1.923370  3.562975
O    0.334933  -2.076705  4.679933
H    -1.067522  -0.282727  0.867495
H    0.627133  -0.523166  2.286122
C    -0.319614  0.727137  3.760395
C    -0.739016  0.503840  5.167939
N    -1.916626  -0.092765  5.505120
C    -0.026806  0.634360  6.363796
C    -1.897393  -0.383919  6.832424
N    -0.765605  0.049153  7.404074
H    -0.965203  1.474993  3.279572
H    0.688862  1.155583  3.770436
H    -2.603715  -0.369340  4.752935
H    0.860762  1.234022  6.559675
H    -2.712077  -0.877968  7.354579
N    -0.752092  -2.962797  2.915303
C    -0.688452  -4.350047  3.370993
H    -1.217879  -2.764131  2.031285
H    0.272656  -4.538937  3.858684
H    -0.787617  -5.005914  2.501459
H    -1.507760  -4.563434  4.070670
Pb    0.828831  -1.760781  6.892197
