30
Energy: -609761.4957980  eV PBE+vdW (tier 2 basis)
C    -2.685620  -0.149062  0.022749
C    -2.459654  -0.524078  1.454277
O    -3.342533  -1.050184  2.155204
H    -1.787108  0.208726  -0.491007
H    -3.451608  0.638696  -0.011488
H    -3.097352  -1.013797  -0.511900
N    -1.217704  -0.267373  1.980645
C    -0.873081  -0.315088  3.397009
C    -0.903090  -1.724094  4.039147
O    0.059678  -2.091162  4.828813
H    -0.520206  0.136605  1.363517
H    0.180004  -0.013917  3.457246
C    -1.708689  0.725013  4.236523
C    -1.412015  0.512565  5.678722
N    -2.227972  -0.209159  6.523366
C    -0.217383  0.636989  6.367923
C    -1.536207  -0.550788  7.638166
N    -0.291619  -0.056147  7.575024
H    -2.776915  0.594373  4.023719
H    -1.422560  1.733717  3.913908
H    -3.211588  -0.416876  6.354523
H    0.657884  1.223125  6.097581
H    -1.957743  -1.105496  8.471143
N    -1.903164  -2.519179  3.768761
C    -2.039078  -3.890603  4.251531
H    -2.639397  -2.076269  3.135215
H    -1.081938  -4.418396  4.179384
H    -2.784403  -4.399063  3.634077
H    -2.380876  -3.906289  5.295931
Pb    1.203936  -1.768788  6.715292
