30
Energy: -609761.3778869  eV PBE+vdW (tier 2 basis)
C    2.043960  1.093290  0.827222
C    1.196923  0.295376  1.759466
O    1.776122  -0.403579  2.661056
H    2.681514  1.773571  1.408139
H    2.718313  0.406402  0.295122
H    1.467601  1.668787  0.095638
N    -0.132135  0.332577  1.605693
C    -1.190528  -0.464520  2.264482
C    -1.423061  -0.025448  3.718340
O    -0.533165  -0.190403  4.626261
H    -0.453957  0.934346  0.850938
H    -2.103484  -0.218864  1.706689
C    -0.995531  -2.004932  2.149143
C    -2.026627  -2.752314  2.924029
N    -3.233654  -3.190134  2.407285
C    -2.088038  -3.086696  4.265939
C    -3.931245  -3.772470  3.431904
N    -3.261878  -3.711041  4.567335
H    0.008897  -2.300484  2.487212
H    -1.008072  -2.263346  1.080742
H    -3.508077  -3.201856  1.429115
H    -1.338778  -2.912480  5.037967
H    -4.905527  -4.229594  3.288967
N    -2.573187  0.535931  4.024958
C    -2.975967  0.942573  5.375280
H    -3.268991  0.624992  3.288147
H    -3.755609  1.704423  5.289134
H    -2.116077  1.352821  5.911621
H    -3.370802  0.074876  5.920926
Pb    1.465059  -1.165805  4.733251
