30
Energy: -609761.3968999  eV PBE+vdW (tier 2 basis)
C    0.244921  -0.317843  -0.290111
C    0.153469  -0.107557  1.181710
O    1.227986  0.071493  1.854702
H    0.732608  0.561914  -0.735990
H    -0.728520  -0.468280  -0.768227
H    0.894678  -1.178161  -0.500084
N    -1.050204  -0.082283  1.761143
C    -1.366011  0.312564  3.145039
C    -1.160796  -0.892137  4.086617
O    0.032716  -1.296150  4.340675
H    -1.848503  -0.238258  1.147617
H    -0.622108  1.064782  3.453876
C    -2.753138  0.974753  3.151743
C    -3.128404  1.544753  4.483968
N    -4.304313  2.239349  4.692385
C    -2.479365  1.589734  5.709478
C    -4.308644  2.656745  5.996335
N    -3.218398  2.274185  6.632551
H    -3.510299  0.255503  2.781611
H    -2.717034  1.774038  2.391537
H    -5.027721  2.433586  4.006444
H    -1.513176  1.172541  5.983671
H    -5.128019  3.228203  6.421337
N    -2.199283  -1.489116  4.621562
C    -2.164079  -2.621674  5.549267
H    -3.106151  -1.045129  4.476634
H    -2.872016  -3.384654  5.205954
H    -2.464381  -2.277155  6.547532
H    -1.155635  -3.037266  5.585901
Pb    2.101822  -0.641483  3.779125
