30
Energy: -609761.5716936  eV PBE+vdW (tier 2 basis)
C    -0.790642  -0.009189  0.177685
C    -0.472662  0.129173  1.625719
O    0.647144  0.656378  1.969242
H    0.006117  -0.576916  -0.321413
H    -0.794607  0.993718  -0.274713
H    -1.756827  -0.490109  -0.006246
N    -1.365310  -0.270316  2.528459
C    -1.314498  -0.059988  3.984019
C    -0.393716  -1.095366  4.666104
O    0.881557  -0.912565  4.636177
H    -2.234854  -0.691641  2.188447
H    -0.822428  0.909746  4.157735
C    -2.744464  0.051605  4.540727
C    -3.657450  -1.094068  4.203374
N    -4.993881  -1.073290  4.546868
C    -3.502504  -2.299327  3.521392
C    -5.564983  -2.226231  4.079247
N    -4.687498  -2.984321  3.457103
H    -3.164262  0.992931  4.149560
H    -2.665436  0.197837  5.630570
H    -5.475204  -0.337964  5.057096
H    -2.609328  -2.726500  3.069224
H    -6.616315  -2.455153  4.225104
N    -0.914695  -2.123217  5.290425
C    -0.179297  -3.176767  5.991378
H    -1.938499  -2.224948  5.224052
H    0.880811  -2.921431  6.041303
H    -0.312457  -4.127500  5.459380
H    -0.588577  -3.278542  7.003292
Pb    2.250767  0.431959  3.491690
