30
Energy: -609761.6045074  eV PBE+vdW (tier 2 basis)
C    1.304915  -0.281841  2.172961
C    0.333888  0.795133  2.544499
O    0.762253  1.911884  3.045203
H    0.816811  -1.182373  1.787428
H    2.002943  0.085669  1.405569
H    1.897522  -0.550226  3.058668
N    -0.949906  0.563949  2.365344
C    -2.141853  1.337950  2.709926
C    -3.237510  0.216253  2.798538
O    -2.983620  -0.859108  2.248274
H    -1.288096  -0.379529  2.054987
H    -1.995550  1.848375  3.671840
C    -2.535631  2.360951  1.591872
C    -1.474507  3.390696  1.436225
N    -1.367206  4.504878  2.246986
C    -0.282320  3.341145  0.743118
C    -0.149420  5.061498  2.083884
N    0.551596  4.356717  1.170210
H    -3.503934  2.813053  1.846469
H    -2.675484  1.819112  0.647231
H    -2.109021  4.890429  2.828674
H    0.027039  2.624848  -0.010537
H    0.165133  5.990283  2.551238
N    -4.377105  0.525986  3.425796
C    -5.502269  -0.405023  3.552884
H    -4.446541  1.415158  3.910068
H    -6.430616  0.096291  3.257774
H    -5.590993  -0.757121  4.587875
H    -5.321469  -1.259011  2.895252
Pb    2.328950  3.399971  2.450747
