30
Energy: -609761.4329890  eV PBE+vdW (tier 2 basis)
C    0.026877  -0.207732  -0.006020
C    -0.166628  -0.358581  1.462886
O    0.517268  -1.247900  2.088753
H    -0.276019  -1.137061  -0.509481
H    1.097592  -0.070814  -0.211304
H    -0.537088  0.631485  -0.425998
N    -1.032103  0.442000  2.082173
C    -1.221587  0.600198  3.527014
C    -1.945728  -0.615781  4.134899
O    -1.260723  -1.609410  4.576636
H    -1.367893  1.258753  1.541480
H    -0.230808  0.622360  4.010253
C    -1.921128  1.981158  3.784463
C    -1.392253  3.056682  2.903896
N    -0.251660  3.799981  3.138715
C    -1.805657  3.440406  1.632702
C    -0.050144  4.593490  2.038206
N    -0.963352  4.384659  1.111038
H    -1.830056  2.214619  4.853612
H    -2.998279  1.908982  3.570332
H    0.271552  3.852960  4.007431
H    -2.705583  3.130445  1.103292
H    0.767328  5.305793  1.977597
N    -3.257812  -0.622566  4.228688
C    -4.078179  -1.705122  4.781130
H    -3.753964  0.201800  3.895970
H    -4.586302  -2.237272  3.966601
H    -4.830977  -1.269456  5.447115
H    -3.444423  -2.395886  5.340735
Pb    0.685728  -2.492192  3.912183
