30
Energy: -609761.6042109  eV PBE+vdW (tier 2 basis)
C    0.854875  -0.176560  0.845533
C    0.144977  0.755767  1.776913
O    0.824275  1.563702  2.529952
H    1.451757  0.395831  0.119325
H    1.548177  -0.801918  1.425057
H    0.172214  -0.826493  0.289291
N    -1.170439  0.713316  1.816754
C    -2.146317  1.396853  2.664449
C    -3.372798  0.418804  2.594214
O    -3.394411  -0.385529  1.658100
H    -1.701915  -0.012577  1.277106
H    -1.755088  1.496021  3.686370
C    -2.564278  2.792542  2.090743
C    -1.398569  3.715191  2.074396
N    -0.977486  4.432923  3.177912
C    -0.368866  3.830497  1.163026
C    0.265112  4.908179  2.955206
N    0.675969  4.540791  1.722647
H    -3.389680  3.193825  2.694473
H    -2.951064  2.656967  1.072141
H    -1.536190  4.632838  4.005753
H    -0.312252  3.424764  0.158529
H    0.798559  5.566013  3.635420
N    -4.319556  0.561221  3.527744
C    -5.539298  -0.250648  3.564242
H    -4.160050  1.203589  4.297182
H    -5.610962  -0.810527  2.628352
H    -6.413502  0.401152  3.670554
H    -5.504337  -0.953850  4.405270
Pb    2.477143  3.032318  2.163347
