30
Energy: -609761.2277705  eV PBE+vdW (tier 2 basis)
C    1.647386  1.134237  0.538325
C    0.995409  0.405372  1.663405
O    1.728859  -0.279162  2.465970
H    2.432565  1.795865  0.927485
H    2.150652  0.393649  -0.102022
H    0.947722  1.714261  -0.072194
N    -0.330573  0.470683  1.788045
C    -1.265916  -0.329425  2.605691
C    -1.255154  0.008577  4.098072
O    -0.174108  0.204405  4.769926
H    -0.789191  1.052984  1.090263
H    -2.248165  -0.027443  2.224347
C    -1.170577  -1.872057  2.359343
C    -2.407998  -2.541712  2.862546
N    -2.417944  -3.588660  3.765077
C    -3.748146  -2.242676  2.662203
C    -3.728572  -3.881613  4.040894
N    -4.549366  -3.070764  3.403734
H    -0.268847  -2.289853  2.827994
H    -1.050170  -2.009507  1.273697
H    -1.619428  -4.141343  4.060847
H    -4.182900  -1.502365  1.992990
H    -4.018285  -4.694386  4.699926
N    -2.424712  0.027310  4.700587
C    -2.666865  0.219897  6.129997
H    -3.236615  -0.222516  4.128943
H    -1.730636  0.458610  6.637325
H    -3.102701  -0.696652  6.547543
H    -3.380918  1.041574  6.261565
Pb    2.000191  -0.229290  4.664474
