30
Energy: -609762.2333601  eV PBE+vdW (tier 2 basis)
C    2.038203  0.809353  1.069078
C    0.952914  0.348716  1.992012
O    1.269337  -0.096353  3.130146
H    1.674631  1.189054  0.108609
H    2.614372  1.597657  1.573054
H    2.731939  -0.023429  0.890920
N    -0.314284  0.453879  1.543898
C    -1.636011  0.183783  2.154439
C    -1.739500  0.605892  3.637191
O    -1.332753  -0.113750  4.599805
H    -0.383675  0.835377  0.603595
H    -2.305215  0.856385  1.600706
C    -2.190373  -1.245190  1.856951
C    -1.670153  -2.336469  2.729483
N    -2.420502  -2.949766  3.701119
C    -0.389043  -2.841859  2.907084
C    -1.608258  -3.751988  4.450840
N    -0.359152  -3.703873  4.007625
H    -1.971935  -1.465052  0.801954
H    -3.285636  -1.195121  1.933661
H    -3.423433  -2.840087  3.838566
H    0.470778  -2.739576  2.249913
H    -1.965030  -4.349013  5.284852
N    -2.355300  1.758498  3.866527
C    -2.589668  2.338438  5.190899
H    -2.684950  2.293830  3.066849
H    -3.585392  2.793475  5.205901
H    -1.839504  3.111782  5.401838
H    -2.530185  1.552686  5.947451
Pb    0.604772  -1.371279  4.926031
