30
Energy: -609762.2396448  eV PBE+vdW (tier 2 basis)
C    0.632628  -1.264270  0.868538
C    0.331527  -0.229430  1.909132
O    1.274028  0.506764  2.321214
H    0.919939  -0.753141  -0.061609
H    -0.201737  -1.941368  0.658002
H    1.504887  -1.848939  1.188198
N    -0.942253  -0.168381  2.349152
C    -1.638110  0.667032  3.347338
C    -1.665995  2.157533  2.972817
O    -0.648215  2.775143  2.539210
H    -1.554711  -0.840230  1.894682
H    -2.675101  0.314488  3.288977
C    -1.228971  0.411980  4.838688
C    0.167578  0.793225  5.186055
N    1.208482  -0.094175  5.293341
C    0.764203  2.043297  5.285071
C    2.377189  0.603729  5.391148
N    2.150866  1.909897  5.380237
H    -1.410144  -0.650100  5.052136
H    -1.932354  0.975533  5.468466
H    1.129226  -1.108809  5.310898
H    0.276190  3.005588  5.429741
H    3.349566  0.127820  5.474083
N    -2.811880  2.814901  3.121695
C    -4.130794  2.308309  3.523020
H    -2.755459  3.802374  2.869991
H    -4.827905  3.150680  3.513132
H    -4.501365  1.556366  2.814438
H    -4.115349  1.897061  4.539358
Pb    1.672037  2.697125  2.859852
