30
Energy: -609761.3840521  eV PBE+vdW (tier 2 basis)
C    -0.174967  -0.416245  -0.119611
C    -0.245450  -0.435825  1.366796
O    0.659999  -1.058669  2.026617
H    0.732398  0.135347  -0.411382
H    -1.042778  0.061718  -0.585630
H    -0.063429  -1.438779  -0.501948
N    -1.224601  0.233557  1.978939
C    -1.324383  0.534271  3.416543
C    -1.897818  -0.679936  4.174151
O    -1.131685  -1.667355  4.457402
H    -1.845876  0.769445  1.373946
H    -0.300330  0.666838  3.802726
C    -2.079126  1.858228  3.613213
C    -1.358505  2.989250  2.946670
N    -1.927832  4.230254  2.744229
C    -0.070756  3.111462  2.442289
C    -0.982581  5.022502  2.148369
N    0.144865  4.367082  1.949681
H    -2.181847  2.033743  4.697570
H    -3.105387  1.773159  3.206140
H    -2.860223  4.526939  3.016201
H    0.722158  2.368311  2.413572
H    -1.174205  6.057899  1.884175
N    -3.164577  -0.691578  4.528734
C    -3.853484  -1.774071  5.237654
H    -3.720650  0.129027  4.294959
H    -3.123001  -2.509030  5.580882
H    -4.575579  -2.252333  4.563824
H    -4.389058  -1.351301  6.095200
Pb    0.957706  -2.271910  3.864093
