30
Energy: -609761.6440867  eV PBE+vdW (tier 2 basis)
C    -0.460054  1.954007  0.639248
C    -0.186398  0.993678  1.750849
O    1.016470  0.567331  1.941924
H    0.186754  2.836238  0.736250
H    -1.505749  2.275077  0.603963
H    -0.206088  1.469780  -0.314712
N    -1.199112  0.583800  2.494499
C    -1.276072  -0.450207  3.520051
C    -2.777515  -0.898976  3.427852
O    -3.563446  -0.109112  2.897546
H    -2.180109  0.854728  2.253250
H    -0.578806  -1.265446  3.284527
C    -0.997341  0.091847  4.965948
C    0.338717  0.736031  5.026905
N    0.530538  2.097015  4.891428
C    1.604274  0.191574  4.932555
C    1.840308  2.349304  4.677623
N    2.531096  1.196065  4.688885
H    -1.046894  -0.753296  5.664591
H    -1.794301  0.791820  5.251998
H    -0.193065  2.806837  4.996064
H    1.902074  -0.847011  5.043038
H    2.262901  3.343987  4.574287
N    -3.092832  -2.079620  3.970468
C    -4.458719  -2.609567  4.004378
H    -2.349969  -2.672054  4.327792
H    -5.133848  -1.851945  3.598572
H    -4.743694  -2.839957  5.037406
H    -4.525879  -3.519825  3.396818
Pb    3.171758  0.601900  2.464997
