30
Energy: -609761.3878478  eV PBE+vdW (tier 2 basis)
C    -2.168255  -0.375845  -0.128923
C    -1.605831  -0.692360  1.223216
O    -0.606281  -1.368431  1.438075
H    -3.255391  -0.231993  -0.117171
H    -1.902999  -1.175841  -0.826865
H    -1.706635  0.552679  -0.497797
N    -2.290098  -0.170936  2.336760
C    -1.565295  -0.244632  3.581625
C    -1.426917  -1.713845  4.038955
O    -0.431610  -2.108573  4.751438
H    -2.969388  0.573902  2.200996
H    -0.524963  0.090109  3.420187
C    -2.187608  0.660530  4.688174
C    -1.336081  0.520696  5.904728
N    -1.664522  -0.238511  6.999511
C    0.017581  0.800889  6.063126
C    -0.546469  -0.461679  7.743945
N    0.504815  0.153447  7.201667
H    -3.230461  0.381615  4.891825
H    -2.184551  1.700584  4.333041
H    -2.597525  -0.578228  7.229055
H    0.623058  1.516825  5.509388
H    -0.538353  -1.044780  8.660235
N    -2.403719  -2.539696  3.737252
C    -2.446926  -3.972455  4.024334
H    -3.112898  -2.150780  3.112702
H    -1.801554  -4.199337  4.875973
H    -2.104082  -4.536016  3.146253
H    -3.478508  -4.258920  4.253028
Pb    1.545466  -1.348420  5.497270
