30
Energy: -609761.3841458  eV PBE+vdW (tier 2 basis)
C    -0.847459  -2.288202  1.956395
C    -0.847357  -0.855857  2.360587
O    -0.077206  -0.034380  1.748100
H    0.180159  -2.672988  1.942339
H    -1.227161  -2.351561  0.924629
H    -1.470658  -2.917298  2.600248
N    -1.682372  -0.452841  3.320685
C    -2.007850  0.935969  3.684291
C    -0.921070  1.513271  4.612986
O    0.186065  1.921622  4.113216
H    -2.316629  -1.161855  3.687035
H    -1.961929  1.542396  2.764696
C    -3.445710  1.000423  4.223062
C    -4.425726  0.537432  3.189791
N    -5.740147  0.232659  3.480983
C    -4.319632  0.343879  1.819057
C    -6.350023  -0.116079  2.305159
N    -5.510725  -0.063252  1.288702
H    -3.648760  2.040721  4.529171
H    -3.536556  0.377028  5.133633
H    -6.194656  0.289839  4.387382
H    -3.453501  0.484394  1.177178
H    -7.397131  -0.398198  2.254500
N    -1.139789  1.591283  5.907838
C    -0.203918  2.106983  6.911440
H    -2.044379  1.269617  6.247614
H    0.637233  2.591134  6.411699
H    0.158741  1.280076  7.535120
H    -0.728591  2.830715  7.545245
Pb    1.159739  1.780074  2.085219
