33
Energy: -244918.310949 eV PBE+vdW (tier 2 basis)
C    -0.666795  1.311642  0.047465
C    -0.403334  0.439956  1.233994
O    0.690470  -0.202572  1.331286
H    0.066876  2.130904  0.052388
H    -1.674157  1.740330  0.041748
H    -0.505002  0.745143  -0.877910
N    -1.343275  0.372342  2.179725
C    -1.231385  -0.194710  3.530447
C    -1.490198  -1.722302  3.525546
O    -0.709959  -2.418421  2.789520
H    -2.199152  0.916820  2.039567
H    -0.163829  -0.151963  3.803939
C    -1.979678  0.738536  4.502566
C    -3.326679  1.279623  4.053609
C    -3.724538  2.532423  4.544850
C    -4.200144  0.596733  3.187731
C    -4.959777  3.077370  4.200872
C    -5.435232  1.148731  2.833201
C    -5.818878  2.387773  3.342142
H    -1.312639  1.595716  4.671633
H    -2.053160  0.245887  5.483062
H    -3.061041  3.085454  5.211442
H    -3.944149  -0.383648  2.777228
H    -5.250754  4.047556  4.601431
H    -6.097499  0.602936  2.162280
H    -6.781903  2.816866  3.069570
N    -2.375910  -2.369695  4.269979
C    -3.379515  -1.958295  5.261186
H    -2.295739  -3.380049  4.146052
H    -3.884696  -1.035881  4.967605
H    -2.917725  -1.844539  6.250173
H    -4.125523  -2.756847  5.316230
Ba    1.392919  -2.491823  1.565441
