33
Energy: -244918.65002 eV PBE+vdW (tier 2 basis)
C    0.860746  2.462375  1.545523
C    0.275768  1.087034  1.493413
O    0.811873  0.132306  2.135649
H    0.791448  2.827014  2.580802
H    0.356542  3.176530  0.886262
H    1.927426  2.424398  1.291977
N    -0.832561  0.898514  0.764883
C    -1.694629  -0.296039  0.742773
C    -1.123318  -1.351632  -0.231125
O    0.013016  -1.867336  0.031549
H    -1.199905  1.712665  0.277015
H    -1.621138  -0.762468  1.737921
C    -3.143754  0.185535  0.510400
C    -4.179978  -0.907905  0.369076
C    -4.382016  -1.858385  1.379597
C    -4.958962  -0.978974  -0.796157
C    -5.332478  -2.866444  1.220289
C    -5.911054  -1.990003  -0.955221
C    -6.093448  -2.938593  0.050350
H    -3.169997  0.825069  -0.386977
H    -3.394151  0.838836  1.360744
H    -3.821760  -1.797547  2.315108
H    -4.853052  -0.214033  -1.570023
H    -5.493717  -3.589733  2.018832
H    -6.520525  -2.022617  -1.857425
H    -6.840708  -3.722102  -0.066704
N    -1.816891  -1.702624  -1.293776
C    -1.397753  -2.705850  -2.270423
H    -2.787393  -1.374708  -1.347900
H    -1.723454  -3.706409  -1.955523
H    -0.309729  -2.692188  -2.374483
H    -1.861314  -2.468660  -3.232770
Ba    1.735861  -2.066026  1.727341
