33
Energy: -244918.447408 eV PBE+vdW (tier 2 basis)
C    0.211527  -1.614426  2.847454
C    -1.110710  -0.923798  2.838925
O    -1.590248  -0.401441  3.881894
H    0.521134  -1.971781  1.859844
H    0.165801  -2.465787  3.540545
H    0.971515  -0.926125  3.240392
N    -1.800783  -0.866030  1.661997
C    -3.077218  -0.174406  1.674428
C    -4.256068  -1.078734  2.079234
O    -4.739132  -0.894227  3.236416
H    -1.401095  -1.281910  0.826171
H    -2.924061  0.410987  2.577000
C    -3.401669  0.959267  0.658217
C    -3.984246  2.062505  1.531246
C    -5.350001  2.093581  1.849514
C    -3.110995  2.924188  2.225912
C    -5.830823  2.933115  2.863866
C    -3.588903  3.770962  3.233643
C    -4.951813  3.764013  3.569414
H    -4.098603  0.645829  -0.127608
H    -2.473115  1.290197  0.174486
H    -6.049290  1.454174  1.309412
H    -2.051161  2.947977  1.964895
H    -6.898103  2.956046  3.083661
H    -2.907446  4.465103  3.726521
H    -5.332636  4.443827  4.331657
N    -4.741533  -2.007682  1.267615
C    -4.275429  -2.385805  -0.064921
H    -5.504173  -2.560016  1.662342
H    -3.620868  -1.615165  -0.481542
H    -5.137413  -2.496830  -0.732335
H    -3.734937  -3.340416  -0.025313
Ba    -3.727503  0.733811  4.878012
