33
Energy: -244918.542469 eV PBE+vdW (tier 2 basis)
C    1.769441  1.311027  1.511315
C    0.417802  0.701548  1.307978
O    0.159020  0.072744  0.238744
H    2.542988  0.546810  1.363631
H    1.901622  1.772904  2.495128
H    1.924251  2.075968  0.736785
N    -0.488405  0.854386  2.286404
C    -1.932134  0.538535  2.303139
C    -2.207158  -0.967969  2.413216
O    -1.812996  -1.762540  1.500766
H    -0.160127  1.374238  3.095392
H    -2.298081  1.017900  3.217564
C    -2.743039  1.157824  1.135197
C    -4.227199  1.004356  1.372615
C    -4.935095  -0.082119  0.843209
C    -4.910090  1.930985  2.173761
C    -6.293487  -0.250955  1.113592
C    -6.268860  1.766818  2.444402
C    -6.960932  0.672987  1.919777
H    -2.456661  0.700776  0.177049
H    -2.462062  2.218035  1.069446
H    -4.425961  -0.801491  0.195205
H    -4.383512  2.800455  2.572507
H    -6.835983  -1.092266  0.684048
H    -6.791899  2.502519  3.054068
H    -8.023686  0.550645  2.123957
N    -2.897202  -1.434836  3.440773
C    -3.523440  -0.703120  4.549100
H    -3.080038  -2.437383  3.396793
H    -4.369721  -0.104609  4.189973
H    -2.796801  -0.063876  5.063137
H    -3.889119  -1.439900  5.269370
Ba    -0.802439  -1.929391  -0.697044
