33
Energy: -244919.347809 eV PBE+vdW (tier 2 basis)
C    -0.724459  1.105767  2.214304
C    -1.664768  -0.038953  2.445039
O    -1.840083  -0.494486  3.601684
H    0.263916  0.840930  2.612125
H    -1.077109  1.973194  2.788852
H    -0.622989  1.393595  1.162843
N    -2.297675  -0.537396  1.361709
C    -3.290879  -1.626395  1.227643
C    -4.530453  -1.424165  2.121461
O    -4.521857  -1.683700  3.352592
H    -2.066565  -0.077658  0.485992
H    -3.635338  -1.515655  0.190837
C    -2.715173  -3.071353  1.272024
C    -2.241554  -3.677432  2.574474
C    -3.071426  -4.559792  3.294094
C    -0.936488  -3.457608  3.053216
C    -2.620947  -5.187634  4.463787
C    -0.483532  -4.074015  4.226877
C    -1.325245  -4.940685  4.939317
H    -1.886254  -3.090814  0.549716
H    -3.496937  -3.719248  0.850085
H    -4.073277  -4.778604  2.922869
H    -0.255536  -2.817388  2.492348
H    -3.268734  -5.894513  4.982526
H    0.539761  -3.908643  4.563802
H    -0.959626  -5.452182  5.829424
N    -5.633006  -0.992805  1.513635
C    -6.905314  -0.769974  2.202755
H    -5.594132  -0.789426  0.519714
H    -7.687730  -0.632001  1.451990
H    -6.850717  0.124944  2.835441
H    -7.149368  -1.636344  2.826941
Ba    -2.884506  -2.047564  5.205883
