33
Energy: -244918.120546 eV PBE+vdW (tier 2 basis)
C    -0.767083  0.082632  -0.573231
C    -0.726957  0.174853  0.915570
O    0.268525  0.708685  1.510064
H    -1.689078  -0.371092  -0.951119
H    0.090057  -0.510913  -0.920310
H    -0.659960  1.087118  -1.003569
N    -1.739615  -0.315946  1.632475
C    -1.720828  -0.366246  3.097069
C    -2.529106  -1.524996  3.725904
O    -2.022754  -2.077040  4.696712
H    -2.475414  -0.808476  1.131314
H    -0.692654  -0.631067  3.374176
C    -2.086122  0.998943  3.763161
C    -0.941752  1.641359  4.509504
C    -0.644310  3.009061  4.348007
C    -0.163542  0.890427  5.418130
C    0.396010  3.614261  5.072447
C    0.877644  1.493374  6.140222
C    1.164880  2.856937  5.968879
H    -2.902932  0.834474  4.482449
H    -2.478949  1.687897  3.005104
H    -1.251639  3.616144  3.674530
H    -0.403829  -0.162306  5.591649
H    0.583190  4.682579  4.959197
H    1.440991  0.904481  6.864823
H    1.950127  3.331831  6.557094
N    -3.734732  -1.833571  3.194162
C    -4.581465  -2.883289  3.768907
H    -4.178558  -1.191719  2.544467
H    -5.232885  -3.285080  2.986786
H    -5.194325  -2.494357  4.592776
H    -3.938619  -3.679285  4.155632
Ba    1.851989  1.614508  3.073736
