33
Energy: -244918.411416 eV PBE+vdW (tier 2 basis)
C    0.253675  1.043105  0.614708
C    -0.289343  0.114612  1.651904
O    0.480889  -0.336537  2.576554
H    1.046495  0.524860  0.057039
H    0.714794  1.914813  1.097098
H    -0.510853  1.383799  -0.090293
N    -1.559581  -0.233867  1.591644
C    -2.268678  -1.242255  2.368856
C    -3.406010  -1.682320  1.378911
O    -3.681802  -0.917956  0.452694
H    -2.165247  0.054667  0.795563
H    -1.592357  -2.080286  2.595882
C    -2.911592  -0.680466  3.665290
C    -1.982174  -0.340520  4.807372
C    -1.629996  -1.316410  5.763478
C    -1.527658  0.977115  5.014971
C    -0.902096  -0.979308  6.916220
C    -0.789937  1.318819  6.158743
C    -0.486479  0.344697  7.124244
H    -3.635963  -1.425001  4.024174
H    -3.496390  0.208401  3.390724
H    -1.992853  -2.339309  5.647467
H    -1.802391  1.757393  4.303955
H    -0.706864  -1.739399  7.673725
H    -0.501109  2.357575  6.323366
H    0.025681  0.623198  8.045508
N    -4.017282  -2.847420  1.637206
C    -5.123702  -3.367288  0.831230
H    -3.670467  -3.429115  2.392382
H    -4.822411  -4.289638  0.320258
H    -5.390072  -2.612865  0.086539
H    -5.990577  -3.571809  1.470162
Ba    1.353349  -0.576285  4.742426
