31
Energy: -244760.877742 eV PBE+vdW (tier 2 basis)
C    -0.25832  0.11416  0.80239
C    -0.52884  0.08086  2.27298
O    0.32993  0.50439  3.09405
H    0.64290  0.70615  0.61728
H    -1.09238  0.55648  0.24467
H    -0.08816  -0.89987  0.40758
N    -1.71461  -0.38991  2.76545
C    -2.34153  -1.64653  2.34773
C    -1.29472  -2.79721  2.56232
O    -0.16607  -2.53887  3.07014
H    -1.80193  -0.20747  3.76507
H    -3.13350  -1.82340  3.09097
C    -3.01677  -1.57482  0.93501
C    -4.27878  -2.35855  0.73049
N    -5.51538  -2.00341  1.27027
C    -4.53804  -3.43018  -0.08996
C    -6.47728  -2.81001  0.80372
N    -5.89265  -3.68340  -0.01876
H    -2.31399  -1.87493  0.14870
H    -3.24606  -0.51445  0.75511
H    -5.70504  -1.21103  1.88139
H    -3.88545  -3.99418  -0.74646
H    -7.53471  -2.75873  1.04552
H    -6.39048  -4.41078  -0.53340
N    -1.65134  -4.03014  2.23535
C    -0.80860  -5.21816  2.43394
H    -2.58916  -4.17929  1.87276
H    -0.63280  -5.38799  3.50309
H    0.14986  -5.09355  1.91793
H    -1.32800  -6.08503  2.01747
Ba    1.71733  -1.21115  4.21875
