31
Energy: -244761.351546 eV PBE+vdW (tier 2 basis)
C    1.93279  -0.83409  1.36734
C    1.07205  -0.85149  2.59087
O    1.56561  -1.09428  3.72640
H    2.40084  -1.82300  1.25469
H    2.75183  -0.11501  1.50416
H    1.39581  -0.58761  0.44530
N    -0.24791  -0.60401  2.41975
C    -1.35593  -0.63730  3.39460
C    -1.20053  0.41975  4.51656
O    -0.28477  0.32050  5.38644
H    -0.51251  -0.35771  1.47029
H    -2.23899  -0.35038  2.81194
C    -1.62705  -2.03348  4.00828
C    -2.28660  -3.02376  3.08885
N    -2.71171  -4.26547  3.55609
C    -2.63645  -3.00123  1.76208
C    -3.29246  -4.96519  2.57339
N    -3.25119  -4.20568  1.47867
H    -2.28077  -1.89161  4.88420
H    -0.68648  -2.45547  4.39142
H    -2.62274  -4.61252  4.50931
H    -2.51331  -2.24781  0.99566
H    -3.71829  -5.96044  2.65523
H    -3.62611  -4.48363  0.57171
N    -2.07060  1.41920  4.56632
C    -3.19860  1.73595  3.67535
H    -1.93100  2.05223  5.35570
H    -3.61795  2.69320  3.99826
H    -3.98976  0.97958  3.74894
H    -2.86596  1.85106  2.63701
Ba    2.04973  -0.22426  5.97920
