31
Energy: -244761.600023 eV PBE+vdW (tier 2 basis)
C    0.58226  1.32309  0.32808
C    0.29468  0.39165  1.46321
O    1.22547  -0.05137  2.19206
H    1.35125  0.87681  -0.31747
H    1.01175  2.25411  0.72569
H    -0.29593  1.57618  -0.27541
N    -0.99734  0.04670  1.67030
C    -1.57527  -0.84616  2.69462
C    -1.29715  -0.36369  4.14176
O    -0.15335  -0.47862  4.66961
H    -1.67051  0.50467  1.06116
H    -2.65866  -0.77285  2.53568
C    -1.18503  -2.34798  2.51889
C    -1.97453  -3.09788  1.48735
N    -1.62184  -3.22653  0.14551
C    -3.12655  -3.83292  1.62967
C    -2.50540  -4.00208  -0.49844
N    -3.42554  -4.36882  0.39592
H    -1.34910  -2.85508  3.47962
H    -0.11064  -2.43090  2.30907
H    -0.79261  -2.84270  -0.30040
H    -3.73657  -4.03393  2.50244
H    -2.47386  -4.28460  -1.54592
H    -4.21982  -4.97526  0.18887
N    -2.33255  0.13616  4.80188
C    -2.30410  0.61091  6.18969
H    -3.22072  0.22207  4.31312
H    -1.49943  0.10823  6.73212
H    -3.26468  0.37654  6.65988
H    -2.15193  1.69797  6.21652
Ba    2.28771  -0.22475  4.41192
