31
Energy: -244761.274470 eV PBE+vdW (tier 2 basis)
C    -3.20771  -1.66196  -1.26671
C    -2.59445  -1.13867  -0.01295
O    -1.58477  -0.37658  -0.03275
H    -2.44300  -2.18166  -1.86020
H    -3.55185  -0.81050  -1.87258
H    -4.05166  -2.33830  -1.09525
N    -3.14383  -1.48912  1.17006
C    -2.71617  -0.93352  2.46239
C    -1.26593  -1.37903  2.79569
O    -0.34735  -0.51659  2.65980
H    -3.97079  -2.08173  1.14289
H    -2.62422  0.15488  2.33756
C    -3.82291  -1.19761  3.52376
C    -3.76727  -0.38506  4.78380
N    -3.24845  -0.83881  5.99464
C    -4.29958  0.85086  5.05957
C    -3.45579  0.06539  6.96116
N    -4.08749  1.09829  6.39841
H    -3.88565  -2.26279  3.78117
H    -4.77900  -0.95254  3.03735
H    -2.82285  -1.74625  6.16781
H    -4.83604  1.54849  4.42730
H    -3.17387  -0.02931  8.00506
H    -4.39310  1.93014  6.90427
N    -0.96824  -2.61879  3.17793
C    -1.80072  -3.82497  3.26545
H    0.02415  -2.75446  3.37816
H    -2.17607  -3.98503  4.28468
H    -1.17814  -4.68671  3.00122
H    -2.63291  -3.78777  2.55799
Ba    0.53064  0.67069  0.61733
