31
Energy: -244760.952573 eV PBE+vdW (tier 2 basis)
C    -0.81892  -0.06380  -0.21584
C    -0.33372  -0.20065  1.18583
O    0.83264  -0.60439  1.44071
H    -0.15746  0.58536  -0.80520
H    -1.85559  0.27412  -0.30381
H    -0.74560  -1.06263  -0.67723
N    -1.17402  0.06747  2.23932
C    -1.86970  1.34839  2.33920
C    -0.85954  2.37397  2.96217
O    0.36961  2.06879  3.02244
H    -0.75074  -0.22172  3.12258
H    -2.03118  1.71598  1.31348
C    -3.29029  1.23315  2.95848
C    -3.47022  0.51118  4.26163
N    -3.93062  -0.80242  4.33258
C    -3.40648  0.94078  5.56516
C    -4.14716  -1.15663  5.60465
N    -3.82312  -0.10501  6.36190
H    -3.91477  0.73539  2.20310
H    -3.73366  2.23413  3.05673
H    -4.13781  -1.40697  3.53924
H    -3.14230  1.90367  5.98447
H    -4.52397  -2.11290  5.95392
H    -3.91203  -0.08031  7.37790
N    -1.31180  3.55743  3.34427
C    -0.47196  4.66071  3.83207
H    -2.29615  3.76778  3.20068
H    0.01695  5.17052  2.99178
H    0.28488  4.27583  4.52199
H    -1.11008  5.37693  4.35739
Ba    2.55195  0.87884  2.46384
