31
Energy: -244761.213075 eV PBE+vdW (tier 2 basis)
C    -1.52079  0.57690  -0.48612
C    -1.06386  0.63281  0.93578
O    0.11421  0.96982  1.23150
H    -0.82485  -0.02693  -1.08231
H    -1.48266  1.59659  -0.89911
H    -2.53576  0.18476  -0.61062
N    -1.96495  0.32069  1.89680
C    -1.82004  0.54761  3.33978
C    -1.00572  -0.59763  4.01953
O    0.11258  -0.85908  3.48241
H    -2.89097  0.06204  1.56694
H    -1.12072  1.39451  3.44534
C    -3.15373  1.07566  3.92070
C    -4.42787  0.32321  3.65193
N    -5.66142  0.95328  3.80383
C    -4.72764  -0.96756  3.28625
C    -6.66109  0.09997  3.55348
N    -6.10552  -1.06996  3.23401
H    -3.27634  2.08908  3.50753
H    -3.03851  1.22293  5.00452
H    -5.80851  1.92471  4.07752
H    -4.09126  -1.81832  3.07495
H    -7.72358  0.32068  3.59905
H    -6.63302  -1.90906  2.99206
N    -1.34165  -1.24296  5.13250
C    -2.45198  -1.12835  6.08780
H    -0.60860  -1.89570  5.41712
H    -3.42315  -1.12925  5.58777
H    -2.34179  -0.23550  6.71620
H    -2.41185  -2.00609  6.73958
Ba    2.11403  -0.06687  2.20928
