31
Energy: -244761.527547 eV PBE+vdW (tier 2 basis)
C    -1.57188  2.29960  2.38145
C    -0.90704  0.98766  2.65059
O    0.34804  0.90359  2.75537
H    -2.65662  2.23070  2.24785
H    -1.12331  2.75270  1.48664
H    -1.36468  2.98528  3.21583
N    -1.70271  -0.09924  2.77879
C    -1.31697  -1.50236  3.01764
C    -0.48042  -1.66652  4.31055
O    0.77007  -1.46108  4.30770
H    -2.70081  0.07798  2.70459
H    -2.26728  -2.02431  3.17963
C    -0.60699  -2.16857  1.80085
C    -1.50588  -2.48620  0.64297
N    -2.06601  -3.74525  0.43277
C    -1.92523  -1.72362  -0.41957
C    -2.78308  -3.75687  -0.69792
N    -2.70765  -2.53033  -1.21956
H    -0.12519  -3.09497  2.14569
H    0.20272  -1.51806  1.44886
H    -1.92561  -4.57243  1.01011
H    -1.71297  -0.69545  -0.68423
H    -3.31590  -4.60560  -1.11556
H    -3.15147  -2.25076  -2.09466
N    -1.10045  -2.05397  5.41777
C    -2.52719  -2.32679  5.64838
H    -0.48113  -2.19179  6.21809
H    -3.15378  -1.50179  5.29180
H    -2.67936  -2.41769  6.72789
H    -2.83235  -3.27335  5.18416
Ba    2.46214  0.28848  3.86353
