31
Energy: -244761.302706 eV PBE+vdW (tier 2 basis)
C    -0.28646  1.26655  0.30689
C    -0.26118  0.86706  1.74471
O    0.72451  1.13272  2.48786
H    -1.18661  0.94252  -0.22602
H    0.59712  0.85843  -0.20252
H    -0.20734  2.36170  0.24322
N    -1.33344  0.21157  2.24611
C    -1.48003  -0.17921  3.65282
C    -0.46498  -1.30300  4.02410
O    0.61121  -0.93541  4.58776
H    -2.07850  -0.02390  1.59572
H    -1.13534  0.67080  4.25848
C    -2.96200  -0.47877  4.01381
C    -3.86084  0.70944  4.19752
N    -4.09366  1.31667  5.43002
C    -4.68712  1.35906  3.31362
C    -5.01497  2.28132  5.31028
N    -5.37557  2.31838  4.02544
H    -2.97390  -1.07547  4.93768
H    -3.41789  -1.12213  3.25021
H    -3.68739  1.04360  6.32274
H    -4.86828  1.19810  2.25785
H    -5.40364  2.90527  6.10899
H    -6.07971  2.95074  3.64373
N    -0.67148  -2.58638  3.75859
C    -1.76599  -3.26638  3.05507
H    0.07370  -3.19507  4.10220
H    -1.37335  -4.20738  2.65690
H    -2.12239  -2.67303  2.20729
H    -2.59324  -3.50405  3.73560
Ba    2.50976  0.59724  4.10834
