31
Energy: -244761.666533 eV PBE+vdW (tier 2 basis)
C    -0.55938  -3.85739  2.14046
C    -0.69668  -2.40413  2.45017
O    0.20469  -1.57487  2.13915
H    -1.38178  -4.47143  2.52233
H    0.39050  -4.23441  2.54197
H    -0.50791  -3.97465  1.04724
N    -1.82527  -1.98969  3.06556
C    -2.20618  -0.58860  3.31707
C    -1.36858  -0.02644  4.49973
O    -0.22635  0.45242  4.24739
H    -2.49282  -2.71386  3.32230
H    -1.89151  -0.00018  2.44274
C    -3.74747  -0.54348  3.42458
C    -4.40723  0.80591  3.43579
N    -5.74899  0.93853  3.08582
C    -3.99192  2.07213  3.76220
C    -6.13768  2.21429  3.19074
N    -5.07677  2.91241  3.59895
H    -4.09425  -1.12283  4.29942
H    -4.12813  -1.09275  2.54882
H    -6.37124  0.18753  2.78906
H    -3.03494  2.44822  4.09841
H    -7.12837  2.60553  2.97994
H    -5.08213  3.91882  3.76344
N    -1.85775  -0.08875  5.73015
C    -1.14599  0.33603  6.94227
H    -2.76977  -0.51682  5.86649
H    -0.58171  -0.50430  7.36775
H    -1.87832  0.67929  7.67938
H    -0.46055  1.15176  6.69737
Ba    1.81149  0.13372  2.80132
