31
Energy: -244761.012364 eV PBE+vdW (tier 2 basis)
C    -1.96865  3.18355  0.84245
C    -0.95894  2.19941  1.32590
O    -0.01424  2.54260  2.08122
H    -2.59824  2.80830  0.03039
H    -1.43113  4.07899  0.49813
H    -2.60861  3.51775  1.67326
N    -1.03057  0.88288  0.92936
C    -2.26649  0.10771  1.07698
C    -2.54459  -0.04567  2.60998
O    -1.64802  0.31663  3.43617
H    -0.22021  0.36501  1.27649
H    -3.09717  0.67711  0.63652
C    -2.13211  -1.26030  0.35136
C    -2.28037  -1.23467  -1.13959
N    -1.37056  -0.66877  -2.02975
C    -3.24486  -1.81469  -1.92583
C    -1.75512  -0.89192  -3.29375
N    -2.89413  -1.58555  -3.23883
H    -2.89153  -1.95368  0.73140
H    -1.16600  -1.71557  0.62405
H    -0.52077  -0.16771  -1.78393
H    -4.12723  -2.38521  -1.66142
H    -1.23683  -0.57269  -4.19223
H    -3.41226  -1.90811  -4.05661
N    -3.70610  -0.51932  3.03284
C    -4.89448  -0.91788  2.27095
H    -3.78169  -0.61184  4.04752
H    -5.78300  -0.57213  2.81079
H    -4.94809  -2.01103  2.18208
H    -4.90006  -0.45873  1.27796
Ba    0.15707  1.76153  4.46315
