31
Energy: -244761.761083 eV PBE+vdW (tier 2 basis)
C    -1.43810  -2.68984  1.49913
C    -1.25048  -1.37551  2.18452
O    -0.32721  -0.58310  1.84783
H    -0.52918  -3.29649  1.61619
H    -1.55840  -2.51347  0.42072
H    -2.29490  -3.26364  1.86782
N    -2.11049  -1.05194  3.17739
C    -2.11650  0.21463  3.92593
C    -0.91676  0.25960  4.92080
O    0.21311  0.60711  4.47310
H    -2.79298  -1.75971  3.43924
H    -1.89855  1.02066  3.20950
C    -3.48917  0.47196  4.57813
C    -4.63205  0.75834  3.64322
N    -5.90292  1.04195  4.13777
C    -4.74676  0.84185  2.27912
C    -6.75189  1.28981  3.13335
N    -6.05960  1.17074  1.99953
H    -3.37831  1.33611  5.25246
H    -3.77417  -0.38331  5.21673
H    -6.17567  1.07324  5.11926
H    -4.02092  0.69994  1.48973
H    -7.80427  1.54025  3.22652
H    -6.45529  1.30628  1.06941
N    -1.09363  -0.07572  6.18878
C    -0.03228  -0.07871  7.20542
H    -2.01543  -0.37231  6.49623
H    0.53375  -1.01833  7.16553
H    -0.49575  0.01727  8.19144
H    0.64185  0.76583  7.03536
Ba    1.72696  0.62149  2.50784
