31
Energy: -244760.672194 eV PBE+vdW (tier 2 basis)
C    0.33236  -0.90613  0.77368
C    -0.00522  -0.23710  2.06410
O    0.82765  -0.32641  3.05358
H    1.26455  -0.48114  0.37548
H    -0.44535  -0.80862  0.01196
H    0.51462  -1.97416  0.95553
N    -1.11999  0.44556  2.23824
C    -2.20092  0.81714  1.31234
C    -2.68338  2.17730  1.90648
O    -2.66553  2.28369  3.13636
H    -1.30128  0.91034  3.14839
H    -1.81229  0.92284  0.29176
C    -3.33800  -0.25473  1.39174
C    -4.64677  0.09615  0.75519
N    -5.03473  -0.29724  -0.52307
C    -5.72657  0.77010  1.27036
C    -6.28685  0.10513  -0.77720
N    -6.71163  0.76031  0.30662
H    -3.53264  -0.44018  2.45701
H    -2.96459  -1.20097  0.97426
H    -4.48814  -0.85850  -1.17240
H    -5.87053  1.23303  2.23925
H    -6.85155  -0.07662  -1.68550
H    -7.64161  1.16672  0.40375
N    -3.10509  3.10827  1.03985
C    -3.58336  4.43171  1.45192
H    -2.98554  2.94026  0.04573
H    -2.84642  5.20156  1.19194
H    -3.73259  4.42743  2.53483
H    -4.52914  4.66030  0.94803
Ba    2.52211  -0.52701  4.66424
