31
Energy: -244760.911281 eV PBE+vdW (tier 2 basis)
C    -0.14009  0.17465  0.25055
C    -0.23643  0.25738  1.74080
O    0.74903  0.65654  2.41685
H    -1.08415  0.41494  -0.24801
H    0.17789  -0.83286  -0.06175
H    0.63306  0.87545  -0.08434
N    -1.40035  -0.04034  2.40373
C    -2.15566  -1.29488  2.26657
C    -1.23526  -2.45688  2.77892
O    0.01283  -2.25238  2.89707
H    -1.33031  0.24487  3.38225
H    -2.98908  -1.20626  2.97995
C    -2.76707  -1.59254  0.87904
C    -3.80566  -0.61154  0.41225
N    -4.61217  -0.88489  -0.69068
C    -4.21040  0.62047  0.86108
C    -5.46809  0.12173  -0.90557
N    -5.23280  1.04029  0.03236
H    -3.24030  -2.58345  0.93913
H    -1.98076  -1.69624  0.11834
H    -4.58155  -1.72390  -1.26783
H    -3.86368  1.22926  1.68538
H    -6.21293  0.17656  -1.69349
H    -5.74338  1.91921  0.11657
N    -1.76698  -3.62016  3.12400
C    -3.17057  -4.04711  3.16846
H    -1.08628  -4.31989  3.42506
H    -3.42304  -4.64656  2.28393
H    -3.84525  -3.18935  3.24863
H    -3.31124  -4.67143  4.05769
Ba    2.16765  -1.05866  3.53633
