31
Energy: -244761.073117 eV PBE+vdW (tier 2 basis)
C    -2.13545  3.67854  0.60582
C    -1.08151  2.79107  1.18039
O    -0.07286  3.26860  1.76436
H    -2.76639  4.09404  1.40725
H    -2.78152  3.18254  -0.12513
H    -1.63949  4.53528  0.13004
N    -1.19329  1.43064  1.07261
C    -2.43470  0.74025  1.41669
C    -2.68897  0.96377  2.95506
O    -1.80639  1.54165  3.65601
H    -0.35664  0.95395  1.41446
H    -3.26606  1.21416  0.87292
C    -2.36493  -0.75765  1.04590
C    -2.34674  -1.06933  -0.42502
N    -2.59285  -2.35936  -0.88860
C    -2.10756  -0.31940  -1.54854
C    -2.51244  -2.40036  -2.22407
N    -2.22016  -1.16547  -2.63456
H    -3.22999  -1.26853  1.49408
H    -1.48109  -1.21001  1.52797
H    -2.80359  -3.17613  -0.31711
H    -1.85745  0.72579  -1.66894
H    -2.66187  -3.27330  -2.85173
H    -2.09984  -0.89891  -3.61156
N    -3.84237  0.55745  3.45813
C    -4.24143  0.69067  4.86652
H    -4.53623  0.16492  2.82576
H    -5.05759  -0.01022  5.06307
H    -4.59113  1.71064  5.07162
H    -3.39491  0.44945  5.51643
Ba    0.11541  3.10228  4.24718
