31
Energy: -244760.647808 eV PBE+vdW (tier 2 basis)
C    0.66802  -0.87579  1.74275
C    0.25515  0.30404  2.56037
O    1.16877  1.00759  3.14854
H    -0.16277  -1.50599  1.41601
H    1.36379  -1.49393  2.32497
H    1.20891  -0.52859  0.84963
N    -1.01305  0.65492  2.69695
C    -2.19378  0.16201  1.96484
C    -3.09975  1.41528  1.82942
O    -3.09188  2.21545  2.79234
H    -1.24392  1.50034  3.24040
H    -1.86913  -0.19698  0.98270
C    -2.95852  -1.00416  2.64548
C    -3.58010  -0.82426  4.00639
N    -4.08690  0.35760  4.53167
C    -3.91395  -1.80593  4.90839
C    -4.70095  0.11899  5.69489
N    -4.60496  -1.19384  5.93132
H    -2.29374  -1.87722  2.70114
H    -3.75636  -1.28899  1.93970
H    -3.93916  1.28390  4.09095
H    -3.74249  -2.87543  4.89098
H    -5.18375  0.85263  6.33073
H    -5.00070  -1.66545  6.74322
N    -3.87053  1.57305  0.75586
C    -4.02467  0.74956  -0.44467
H    -4.45068  2.41346  0.79907
H    -5.04380  0.34586  -0.49372
H    -3.84715  1.36363  -1.33545
H    -3.31751  -0.08444  -0.45144
Ba    3.14189  2.11134  3.82381
