31
Energy: -244761.452370 eV PBE+vdW (tier 2 basis)
C    1.56825  -0.39444  1.10898
C    0.86636  -0.65237  2.40374
O    1.51594  -0.86940  3.46401
H    2.16585  0.52411  1.20120
H    0.89625  -0.28819  0.25077
H    2.27817  -1.21060  0.91630
N    -0.48669  -0.64033  2.39171
C    -1.42192  -0.88325  3.50561
C    -1.18588  0.08824  4.68838
O    -0.29405  -0.14803  5.55707
H    -0.91405  -0.42988  1.49374
H    -2.40948  -0.65172  3.08985
C    -1.44245  -2.36425  3.99049
C    -2.11934  -3.32440  3.05808
N    -3.45148  -3.71235  3.19338
C    -1.64553  -4.03333  1.98154
C    -3.77517  -4.61300  2.25688
N    -2.68475  -4.80990  1.51246
H    -1.94247  -2.40152  4.96913
H    -0.41499  -2.70719  4.16118
H    -4.09690  -3.41187  3.92151
H    -0.66094  -4.07008  1.53277
H    -4.73899  -5.09679  2.13262
H    -2.63583  -5.45904  0.72686
N    -1.95834  1.16264  4.78561
C    -3.02828  1.63325  3.89296
H    -1.78238  1.73132  5.61550
H    -2.69100  1.67092  2.85112
H    -3.29107  2.65148  4.19454
H    -3.92791  1.01145  3.98628
Ba    2.14306  -0.48748  5.81675
