31
Energy: -244760.667095 eV PBE+vdW (tier 2 basis)
C    0.02038  -0.09680  -0.34535
C    -0.01996  -0.10646  1.14753
O    1.07922  -0.32882  1.79777
H    0.70990  0.68822  -0.68709
H    -0.95137  0.06944  -0.81689
H    0.42033  -1.05616  -0.70207
N    -1.13260  0.09951  1.82764
C    -2.42816  0.62202  1.36990
C    -2.91929  1.44744  2.60649
O    -2.43213  1.16084  3.71085
H    -1.10257  0.17292  2.86573
H    -2.26031  1.29513  0.51925
C    -3.44283  -0.45159  0.89984
C    -4.15813  -1.29465  1.91921
N    -5.11102  -2.22220  1.50032
C    -4.15317  -1.37570  3.28944
C    -5.66416  -2.83700  2.55201
N    -5.08765  -2.33074  3.64322
H    -2.93342  -1.11609  0.18353
H    -4.20806  0.07915  0.31058
H    -5.37729  -2.41309  0.53599
H    -3.58812  -0.81831  4.02637
H    -6.43568  -3.59912  2.52033
H    -5.32161  -2.60581  4.59582
N    -3.84651  2.37902  2.37787
C    -4.42541  3.22973  3.42357
H    -4.12663  2.56783  1.41922
H    -4.01166  2.92884  4.38908
H    -5.51572  3.11767  3.43513
H    -4.17512  4.27953  3.23034
Ba    3.26539  -0.48836  2.63787
