31
Energy: -244761.276407 eV PBE+vdW (tier 2 basis)
C    0.20091  -0.70690  0.44475
C    -0.07297  0.18721  1.60742
O    0.84428  0.85577  2.15713
H    0.56300  -0.08938  -0.39120
H    -0.67226  -1.27689  0.11001
H    1.01245  -1.40295  0.69458
N    -1.34851  0.28417  2.05798
C    -1.75898  1.19811  3.12825
C    -1.33503  0.63460  4.51106
O    -0.19563  0.95778  4.95100
H    -2.02983  -0.34940  1.65004
H    -1.11879  2.08412  3.01879
C    -3.20009  1.76357  2.96125
C    -4.41848  0.88663  2.88761
N    -4.97550  0.43941  1.68759
C    -5.32033  0.51504  3.85812
C    -6.14936  -0.16695  1.91100
N    -6.36126  -0.13450  3.22786
H    -3.18060  2.38917  2.05625
H    -3.35501  2.46653  3.79172
H    -4.62015  0.62846  0.75188
H    -5.33706  0.71439  4.92366
H    -6.80813  -0.59484  1.16110
H    -7.19387  -0.50859  3.68523
N    -2.14340  -0.18084  5.17273
C    -1.82860  -0.79951  6.46748
H    -3.02262  -0.43891  4.73303
H    -1.22345  -0.11084  7.06363
H    -1.28159  -1.74018  6.32255
H    -2.76392  -1.00869  6.99495
Ba    2.11500  1.52904  4.16647
