31
Energy: -244760.892855 eV PBE+vdW (tier 2 basis)
C    -1.19821  3.50208  1.53478
C    -0.59040  2.29817  2.16559
O    -0.01990  2.36323  3.28821
H    -0.39261  4.24566  1.41949
H    -1.93962  3.96457  2.20016
H    -1.63607  3.31966  0.54954
N    -0.60107  1.09156  1.51912
C    -1.81745  0.49729  0.96414
C    -2.79257  0.26129  2.16223
O    -2.31316  0.23711  3.33830
H    -0.00899  0.41022  1.99731
H    -2.26869  1.20572  0.25718
C    -1.39455  -0.81678  0.22627
C    -2.27893  -1.38632  -0.83783
N    -2.34165  -0.88997  -2.13977
C    -3.04455  -2.52556  -0.84784
C    -3.10174  -1.68330  -2.90566
N    -3.53803  -2.67646  -2.12697
H    -1.22040  -1.60802  0.96902
H    -0.41350  -0.60366  -0.22630
H    -1.83581  -0.08529  -2.50568
H    -3.24857  -3.24891  -0.06743
H    -3.31310  -1.54984  -3.96222
H    -4.12433  -3.44586  -2.45206
N    -4.09469  0.10827  1.96119
C    -4.88532  0.22319  0.73370
H    -4.63204  -0.06315  2.81336
H    -5.29329  -0.75441  0.45114
H    -4.28198  0.61642  -0.08800
H    -5.71955  0.91179  0.91310
Ba    -0.89824  1.15030  5.27392
