31
Energy: -244760.969097 eV PBE+vdW (tier 2 basis)
C    -0.42299  -1.25142  -0.81150
C    -0.03457  -0.41800  0.36766
O    1.11101  0.10259  0.43222
H    0.25083  -1.02078  -1.64333
H    -1.45697  -1.07145  -1.12466
H    -0.31075  -2.32337  -0.58229
N    -0.91972  -0.16588  1.38396
C    -1.68596  -1.19353  2.10271
C    -0.65454  -2.18952  2.75599
O    0.58119  -2.06464  2.50963
H    -0.53981  0.53588  2.02080
H    -2.16413  -0.65639  2.93678
C    -2.81093  -1.90222  1.31310
C    -3.91342  -1.00937  0.81559
N    -5.10429  -1.54295  0.32664
C    -4.06012  0.35163  0.72085
C    -5.93830  -0.56399  -0.04437
N    -5.31373  0.59047  0.19206
H    -3.26487  -2.64727  1.98441
H    -2.39761  -2.48524  0.47792
H    -5.33840  -2.53194  0.25474
H    -3.39060  1.16160  0.97659
H    -6.93463  -0.68885  -0.45711
H    -5.71593  1.50943  0.00770
N    -1.11530  -3.10770  3.58863
C    -0.28016  -4.07929  4.30985
H    -2.10878  -3.11677  3.80539
H    0.25367  -3.58857  5.13367
H    0.43705  -4.53856  3.62217
H    -0.93103  -4.85575  4.72101
Ba    2.81045  -1.01060  1.87459
