31
Energy: -244761.645955 eV PBE+vdW (tier 2 basis)
C    -0.63977  -1.30429  -0.01355
C    -0.95700  -0.08025  0.78560
O    -0.28607  0.21570  1.81372
H    -0.64189  -2.17777  0.65322
H    0.38099  -1.21991  -0.41344
H    -1.32704  -1.48358  -0.84709
N    -1.98448  0.68910  0.36018
C    -2.54280  1.91908  0.95390
C    -1.50529  3.06784  1.04683
O    -0.59078  3.06411  1.91992
H    -2.43166  0.37749  -0.49790
H    -3.31123  2.23855  0.23780
C    -3.24214  1.68329  2.32823
C    -4.55428  0.96082  2.25938
N    -5.78534  1.61152  2.18821
C    -4.85647  -0.37808  2.29951
C    -6.78631  0.72220  2.19101
N    -6.23054  -0.48994  2.25313
H    -3.39553  2.66038  2.80936
H    -2.56822  1.12173  2.98616
H    -5.93724  2.61845  2.18591
H    -4.21752  -1.24807  2.38373
H    -7.84815  0.94587  2.15854
H    -6.75848  -1.36248  2.28273
N    -1.65403  4.06700  0.18776
C    -0.80458  5.26241  0.13256
H    -2.39133  4.00055  -0.50990
H    -1.40084  6.09691  -0.24911
H    0.04569  5.09648  -0.54203
H    -0.44207  5.50169  1.13604
Ba    1.18037  1.75720  3.04860
