21
Energy: -604615.186836 eV PBE+vdW (tier 2 basis)
N    0.195058  0.658048  0.463068
C    -0.544981  0.393579  1.658304
C    0.271646  0.382767  2.974861
O    -0.259798  0.497961  4.076093
H    0.933615  0.000235  0.223435
H    0.474874  1.622230  0.304635
H    -1.263691  1.217032  1.792580
C    -1.327713  -0.940088  1.466683
C    -2.122773  -1.529485  2.662344
C    -3.233922  -0.669207  3.199860
O    -4.476330  -0.925971  2.885144
N    -2.948550  0.340028  3.978502
H    -0.613024  -1.721440  1.169604
H    -1.988903  -0.784400  0.604347
H    -1.443774  -1.754521  3.497303
H    -2.559377  -2.480541  2.335638
H    -1.928876  0.534065  4.176195
H    -3.674105  0.949901  4.351301
O    1.573203  0.231436  2.793704
H    2.034241  0.240514  3.660360
Pb    -6.439980  -1.719913  2.599936
