21
Energy: -604615.304752 eV PBE+vdW (tier 2 basis)
N    -0.241176  0.035271  0.529189
C    -0.185444  -0.272689  2.007968
C    1.257272  -0.351608  2.535610
O    1.524978  -0.820708  3.607886
H    0.416924  0.791624  0.295936
H    0.011877  -0.773188  -0.052353
H    -0.635775  0.611572  2.483764
C    -0.978272  -1.533455  2.384515
C    -2.370545  -1.752100  1.736972
C    -3.283737  -0.547885  1.636121
O    -4.497779  -0.661123  2.246954
N    -2.927766  0.485041  0.976151
H    -1.066123  -1.513265  3.477736
H    -0.376040  -2.424685  2.156866
H    -2.869980  -2.554242  2.290675
H    -2.254119  -2.129039  0.708422
H    -1.250586  0.333000  0.349046
H    -3.615850  1.242422  0.935548
O    2.121817  0.203402  1.655329
H    3.024290  0.180738  2.037853
Pb    -6.405464  -0.892565  2.999710
