21
Energy: -604616.761872 eV PBE+vdW (tier 2 basis)
N    0.102038  -1.519178  0.374249
C    0.145231  -0.337976  1.295809
C    1.507570  0.344740  1.309112
O    1.740458  1.451733  1.668543
H    -0.044672  -1.188800  -0.587478
H    -0.727983  -2.080749  0.595340
H    -0.550712  0.425439  0.916485
C    -0.299131  -0.651782  2.746379
C    0.690417  -1.314403  3.733417
C    0.900599  -2.800699  3.592723
O    1.395375  -3.329237  2.536184
N    0.581316  -3.591040  4.600311
H    -1.245738  -1.211801  2.705368
H    -0.556874  0.321793  3.184371
H    0.328999  -1.097950  4.746684
H    1.683972  -0.840295  3.674482
H    0.192828  -3.229220  5.467240
H    0.748482  -4.594993  4.540980
O    2.555754  -0.529595  0.892875
H    3.396998  -0.021732  0.936389
Pb    2.145076  -2.919255  0.466537
