21
Energy: -604615.263814 eV PBE+vdW (tier 2 basis)
N    0.499976  -0.639974  0.314554
C    -0.092214  0.010438  1.474374
C    1.009205  0.405300  2.461325
O    1.040199  0.106708  3.650902
H    1.360201  -0.195542  -0.005668
H    -0.146744  -0.713927  -0.471105
H    -0.565128  0.982019  1.212994
C    -1.206935  -0.861449  2.080281
C    -0.847725  -2.361461  2.246013
C    -0.600183  -2.863281  3.629462
O    -0.938073  -4.106485  3.919791
N    -0.047646  -2.123822  4.546925
H    -2.058318  -0.812216  1.388801
H    -1.566286  -0.414113  3.015954
H    0.067917  -2.553144  1.644795
H    -1.623837  -2.998892  1.807001
H    0.143922  -2.494240  5.475852
H    0.311420  -1.156592  4.281897
O    1.932343  1.160742  1.879468
H    2.609826  1.427113  2.536533
Pb    -1.539913  -6.104873  4.197204
