21
Energy: -604616.093954 eV PBE+vdW (tier 2 basis)
N    -0.310156  0.379225  0.160250
C    0.134224  -0.065490  1.447481
C    1.651357  -0.101099  1.498718
O    2.375363  0.167203  0.485537
H    -0.249911  -0.318256  -0.579019
H    -1.237295  0.795600  0.170282
H    -0.122010  0.733681  2.168700
C    -0.448043  -1.427603  2.012133
C    -1.277463  -1.331649  3.301066
C    -0.539867  -1.248823  4.610282
O    0.722985  -0.967409  4.724352
N    -1.180003  -1.456163  5.736602
H    0.330871  -2.197383  2.116103
H    -1.122786  -1.799439  1.231798
H    -1.943741  -2.205510  3.367001
H    -1.954078  -0.459630  3.262784
H    -2.168070  -1.694046  5.751605
H    -0.695564  -1.378461  6.630575
O    2.246768  -0.409894  2.616812
H    1.220495  -0.802772  3.864634
Pb    4.350419  -0.024447  1.600358
