21
Energy: -604615.010814 eV PBE+vdW (tier 2 basis)
N    0.281886  0.196527  -0.030791
C    0.062727  -0.074904  1.354295
C    1.317368  -0.579255  2.138664
O    1.247250  -1.085460  3.242194
H    0.608894  -0.574013  -0.609733
H    0.757483  1.066695  -0.254083
H    -0.194472  0.880315  1.843177
C    -1.124961  -1.063215  1.533222
C    -1.644775  -1.143477  2.973653
C    -2.751087  -2.111779  3.244602
O    -3.172955  -2.283572  4.457709
N    -3.318913  -2.808659  2.284147
H    -0.802773  -2.059060  1.188212
H    -1.910930  -0.704702  0.853415
H    -2.007522  -0.159233  3.317449
H    -0.814645  -1.406608  3.653042
H    -3.035603  -2.694131  1.314094
H    -4.069184  -3.468204  2.482879
O    2.446929  -0.359119  1.468196
H    3.208196  -0.651874  2.013332
Pb    -3.291567  -2.228531  6.619304
