21
Energy: -604616.283322 eV PBE+vdW (tier 2 basis)
N    -0.092260  -1.631948  0.708984
C    -0.125644  -0.360166  1.518131
C    1.282040  0.086659  1.976396
O    1.472131  0.662269  3.017102
H    0.574992  -2.294616  1.123077
H    0.298149  -1.426520  -0.218938
H    -0.470436  0.423701  0.825452
C    -1.121667  -0.390732  2.689350
C    -0.839052  -1.291646  3.896812
C    -1.105539  -2.771871  3.763592
O    -1.712185  -3.287670  2.753273
N    -0.738765  -3.572359  4.744293
H    -2.151873  -0.557099  2.304187
H    -1.172102  0.638699  3.070280
H    -1.466901  -0.945556  4.735155
H    0.194645  -1.139785  4.244691
H    -0.279602  -3.218921  5.580985
H    -0.958280  -4.567164  4.711317
O    2.203455  -0.235890  1.051463
H    3.078172  0.111868  1.328777
Pb    -2.291181  -2.730194  0.689943
