21
Energy: -604615.541979 eV PBE+vdW (tier 2 basis)
N    0.250883  0.226139  -0.166199
C    -0.010495  -0.181636  1.265281
C    1.206002  0.086800  2.174604
O    1.280051  -0.353335  3.289694
H    1.123284  -0.190399  -0.515523
H    0.350969  1.243913  -0.261474
H    -0.808762  0.484665  1.627856
C    -0.457489  -1.648509  1.352703
C    -1.951249  -1.954227  1.158451
C    -2.546009  -1.724257  -0.207785
O    -3.753374  -2.331508  -0.403941
N    -1.992639  -1.008954  -1.108464
H    -0.196405  -1.975083  2.368627
H    0.150822  -2.264787  0.672453
H    -2.558107  -1.378006  1.878447
H    -2.119263  -3.008751  1.421086
H    -0.583441  -0.147737  -0.741987
H    -2.522017  -0.937921  -1.982802
O    2.106764  0.881755  1.557132
H    2.844898  1.063052  2.176518
Pb    -5.547084  -3.330941  -0.587660
