21
Energy: -604616.885693 eV PBE+vdW (tier 2 basis)
N    -0.666553  -0.310408  0.263087
C    0.043031  0.510646  1.281225
C    1.231658  -0.249453  1.848578
O    1.843947  0.204162  2.879756
H    -1.742526  -0.789197  0.823909
H    -0.968461  0.269422  -0.525527
H    0.516052  1.380332  0.788915
C    -0.918780  1.081712  2.346570
C    -1.683133  0.081636  3.239954
C    -2.832488  -0.653477  2.579890
O    -2.749019  -1.101176  1.392878
N    -3.940602  -0.866450  3.270401
H    -1.629130  1.742281  1.829024
H    -0.327668  1.735098  3.000566
H    -2.055804  0.626820  4.116719
H    -1.006448  -0.691603  3.641736
H    -4.067861  -0.520222  4.215193
H    -4.703847  -1.391861  2.847539
O    1.668825  -1.301670  1.257273
H    -0.060878  -1.048211  -0.112324
Pb    3.520687  -1.372380  2.674637
