21
Energy: -604614.835824 eV PBE+vdW (tier 2 basis)
N    0.317961  -0.392546  0.166093
C    -0.109574  -0.198874  1.513055
C    1.008820  -0.314689  2.593050
O    2.118221  -0.730378  2.439345
H    0.717274  -1.307868  -0.040101
H    0.900352  0.347846  -0.220117
H    -0.458521  0.844088  1.601081
C    -1.258633  -1.185374  1.884509
C    -2.667379  -0.604668  1.729750
C    -3.141192  0.347726  2.789661
O    -4.363646  0.793748  2.733615
N    -2.372305  0.743914  3.774940
H    -1.128988  -1.591379  2.896886
H    -1.183281  -2.050067  1.213050
H    -3.409806  -1.419797  1.708654
H    -2.776184  -0.088053  0.760188
H    -1.384904  0.452468  3.863742
H    -2.731528  1.388084  4.478024
O    0.508282  0.145488  3.793702
H    1.214521  0.067320  4.468840
Pb    -6.436479  1.199484  2.326034
