21
Energy: -604617.0023 eV PBE+vdW (tier 2 basis)
N    -0.373736  -0.607297  0.202131
C    0.263164  -0.330422  1.506230
C    1.721123  -0.776081  1.561028
O    2.228473  -1.466858  0.607698
H    -0.128929  0.091863  -0.503703
H    -0.080998  -1.517020  -0.169030
H    0.281690  0.761289  1.654546
C    -0.542069  -0.961055  2.671607
C    -1.913442  -0.309366  2.952723
C    -3.033523  -0.626955  1.987162
O    -2.835169  -0.770026  0.732810
N    -4.268648  -0.726561  2.440865
H    0.055197  -0.855029  3.586074
H    -0.657957  -2.041206  2.494021
H    -1.818942  0.789985  2.971740
H    -2.227439  -0.594986  3.965333
H    -4.493529  -0.628350  3.425410
H    -5.035959  -0.882873  1.789026
O    2.442541  -0.451942  2.571998
H    -1.749609  -0.669189  0.437798
Pb    4.301469  -1.476970  1.676123
