21
Energy: -604616.14779 eV PBE+vdW (tier 2 basis)
N    1.186213  0.760990  2.485874
C    0.686565  -0.573504  2.739186
C    1.363680  -1.356330  1.615996
O    2.561102  -1.782983  1.787830
H    0.608766  1.380934  1.927727
H    1.612234  1.234197  3.276202
H    1.165141  -0.944359  3.656179
C    -0.834772  -0.755445  2.939221
C    -1.811237  -0.040912  1.959422
C    -2.465429  -0.938192  0.955290
O    -1.774172  -1.667736  0.132171
N    -3.769681  -1.021697  0.858297
H    -1.042087  -0.346623  3.936217
H    -1.070239  -1.827995  3.010133
H    -1.307381  0.754656  1.385099
H    -2.592955  0.470611  2.532618
H    -4.383722  -0.486704  1.465814
H    -4.200416  -1.620824  0.153673
O    0.824299  -1.535280  0.445220
H    -0.777388  -1.552476  0.255309
Pb    2.857839  -2.531308  -0.317385
