21
Energy: -604616.022732 eV PBE+vdW (tier 2 basis)
N    0.381817  0.522614  -0.033040
C    0.219683  0.028536  1.363866
C    1.540651  0.160349  2.116967
O    2.403088  0.998853  1.753372
H    -0.690485  0.748133  -0.278257
H    0.661888  -0.254574  -0.646263
H    -0.428663  0.777781  1.857649
C    -0.497119  -1.336790  1.468884
C    -1.713397  -1.528469  0.521357
C    -2.617232  -0.314808  0.325169
O    -2.144066  0.781628  -0.076366
N    -3.920251  -0.456433  0.550612
H    -0.846854  -1.452840  2.507046
H    0.209721  -2.155758  1.268325
H    -2.282352  -2.393788  0.882142
H    -1.362951  -1.807304  -0.484564
H    -4.331280  -1.333912  0.849975
H    -4.547883  0.321813  0.358998
O    1.801807  -0.519743  3.193133
H    1.110990  -1.172600  3.430029
Pb    2.064010  2.215221  -0.152327
