21
Energy: -604614.937111 eV PBE+vdW (tier 2 basis)
N    -0.076188  0.439666  0.157208
C    -0.177587  -0.153170  1.472651
C    1.229216  -0.554638  1.914012
O    2.241102  -0.111232  1.439553
H    0.849067  0.830902  -0.030551
H    -0.814101  1.104282  -0.068367
H    -0.480357  0.585637  2.245795
C    -1.255807  -1.262094  1.490172
C    -1.133896  -2.250309  0.311567
C    -0.480743  -3.566604  0.543249
O    -0.705758  -4.540773  -0.306111
N    0.323013  -3.799929  1.551493
H    -2.228718  -0.764033  1.383951
H    -1.294224  -1.758230  2.468404
H    -0.561459  -1.722596  -0.487310
H    -2.115524  -2.463822  -0.131869
H    0.769001  -4.708216  1.663472
H    0.566041  -3.052785  2.223048
O    1.213720  -1.453619  2.956340
H    2.129373  -1.503260  3.304795
Pb    -1.260505  -5.843428  -1.889805
