21
Energy: -604616.228354 eV PBE+vdW (tier 2 basis)
N    0.925801  0.048975  0.176578
C    0.143724  0.021011  1.407400
C    1.042111  -0.370976  2.561626
O    2.124118  0.290743  2.755402
H    0.424782  0.559623  -0.552825
H    1.825761  0.515388  0.298296
H    -0.199186  1.031495  1.734336
C    -1.134303  -0.821650  1.230347
C    -0.917124  -2.212815  0.577473
C    -1.208674  -3.373521  1.466641
O    -0.799100  -3.415278  2.704408
N    -1.874829  -4.419898  1.044439
H    -1.793188  -0.243598  0.569879
H    -1.679799  -0.887496  2.181670
H    0.136170  -2.291870  0.246761
H    -1.510616  -2.309839  -0.338931
H    -2.243213  -4.467055  0.098758
H    -2.035517  -5.217543  1.659479
O    0.749131  -1.313607  3.398652
H    -0.291068  -2.592956  2.960818
Pb    2.705905  -0.796470  4.662780
