21
Energy: -604615.141123 eV PBE+vdW (tier 2 basis)
N    0.616454  0.832056  0.638715
C    0.192485  0.202699  1.863297
C    1.349723  0.179184  2.868103
O    1.594630  -0.746150  3.634140
H    -0.121142  1.043159  -0.028995
H    1.280381  1.596795  0.734637
H    -0.601219  0.791246  2.382948
C    -0.380066  -1.200933  1.547794
C    -1.318746  -1.820911  2.624156
C    -0.817740  -3.065893  3.304192
O    -1.610566  -4.103308  3.409832
N    0.385693  -3.108263  3.799878
H    0.445920  -1.876191  1.289083
H    -0.970333  -1.094843  0.629485
H    -2.293951  -2.058517  2.186582
H    -1.517842  -1.089746  3.427526
H    0.973076  -2.228398  3.743709
H    0.737743  -3.936220  4.276185
O    2.046439  1.307626  2.850507
H    2.764804  1.267722  3.516942
Pb    -3.020289  -5.684104  3.612000
