21
Energy: -604615.150596 eV PBE+vdW (tier 2 basis)
N    -0.284049  0.576929  -0.021579
C    -0.131990  0.027306  1.324355
C    1.144153  -0.815459  1.366905
O    1.482479  -1.579499  0.464541
H    -1.071941  1.223523  -0.071197
H    0.548735  1.073288  -0.342413
H    -0.027718  0.806405  2.099684
C    -1.376602  -0.817175  1.709877
C    -1.536470  -2.246916  1.123140
C    -1.618926  -2.384309  -0.375904
O    -2.757169  -2.739069  -0.936414
N    -0.576304  -2.167432  -1.116778
H    -2.264780  -0.213669  1.472614
H    -1.380658  -0.945493  2.800595
H    -2.444884  -2.686224  1.551573
H    -0.697452  -2.880086  1.452386
H    -0.622408  -2.232112  -2.132630
H    0.331771  -1.873236  -0.635188
O    1.826344  -0.650685  2.488801
H    2.626382  -1.219482  2.479550
Pb    -4.586599  -3.573209  -1.581142
