21
Energy: -604615.214754 eV PBE+vdW (tier 2 basis)
N    0.969664  -0.417692  -0.086176
C    0.000176  -0.525443  0.963770
C    0.548281  -0.642039  2.407948
O    -0.200383  -0.778394  3.373240
H    1.573355  -1.226839  -0.222485
H    1.505453  0.446986  -0.109988
H    -0.558872  0.426807  0.985646
C    -0.991078  -1.704505  0.699966
C    -2.460238  -1.322087  0.476173
C    -3.299052  -0.928572  1.659928
O    -4.582859  -0.737272  1.459684
N    -2.809953  -0.775514  2.856304
H    -0.917736  -2.465649  1.488249
H    -0.659644  -2.192036  -0.224976
H    -2.984739  -2.176142  0.017180
H    -2.549479  -0.505315  -0.260985
H    -1.761810  -0.841178  3.066661
H    -3.426853  -0.504705  3.621749
O    1.862682  -0.564619  2.496320
H    2.138620  -0.626583  3.436507
Pb    -6.634072  -0.678266  0.893556
