25
Energy: -242282.84613 eV PBE+vdW (tier 2 basis)
N    0.248659  -0.668871  0.830518
C    -0.640859  0.301412  1.554447
C    0.314868  1.278970  2.260675
O    1.258203  1.763717  1.584763
H    -0.340431  -1.211320  0.189610
H    0.576459  -1.360212  1.517885
H    -1.113723  0.921928  0.773548
C    -1.778579  -0.321163  2.399513
C    -1.381945  -0.815211  3.769582
C    -1.752221  -0.077296  4.915092
C    -0.628379  -1.985487  3.961101
C    -1.354542  -0.466544  6.191819
C    -0.230186  -2.389461  5.231796
C    -0.579508  -1.624760  6.359858
O    -0.234295  -1.949039  7.619624
H    -2.229189  -1.125842  1.797264
H    -2.565228  0.440882  2.498247
H    -2.419168  0.783931  4.815164
H    -0.399537  -2.639425  3.115804
H    -1.661701  0.096318  7.071891
H    0.329087  -3.317885  5.356414
H    0.252932  -2.790182  7.650450
O    0.183945  1.627957  3.493884
H    -0.476399  1.040490  3.994167
Ba    2.387211  0.796355  -0.310608
