25
Energy: -242282.873803 eV PBE+vdW (tier 2 basis)
N    0.696151  0.186375  0.325352
C    0.176589  0.039368  1.727052
C    1.417528  0.111919  2.633177
O    2.248150  1.031092  2.418588
H    -0.108369  0.353077  -0.288579
H    1.052835  -0.731851  0.029930
H    -0.362711  0.975793  1.951847
C    -0.808773  -1.130555  1.968861
C    -0.173287  -2.482456  2.188555
C    -0.179126  -3.064086  3.471840
C    0.460641  -3.192445  1.150321
C    0.452359  -4.284757  3.721759
C    1.091920  -4.404747  1.384753
C    1.104790  -4.958737  2.679552
O    1.738623  -6.136940  2.824400
H    -1.509010  -1.149759  1.118715
H    -1.421734  -0.866086  2.842576
H    -0.734903  -2.586727  4.283476
H    0.404426  -2.830900  0.120229
H    0.413290  -4.719435  4.721279
H    1.557950  -4.964569  0.575094
H    1.657468  -6.474133  3.733416
O    1.628157  -0.712667  3.600839
H    1.013628  -1.520322  3.553109
Ba    2.742092  2.141535  0.337168
