25
Energy: -242283.81046 eV PBE+vdW (tier 2 basis)
N    0.408330  -0.213690  -0.213359
C    0.701074  -0.673817  1.197476
C    2.230769  -0.970127  1.159063
O    2.774910  -1.235434  2.295570
H    0.213757  0.791566  -0.281667
H    -0.354676  -0.723132  -0.673896
H    0.494557  0.156006  1.883826
C    -0.146924  -1.918236  1.546383
C    0.115222  -2.539315  2.904269
C    -0.194578  -1.868876  4.102286
C    0.597118  -3.858235  3.006431
C    -0.045454  -2.485331  5.351245
C    0.746095  -4.496485  4.244432
C    0.394544  -3.824335  5.433550
O    0.532446  -4.506993  6.586427
H    0.019569  -2.683649  0.773495
H    -1.211132  -1.638408  1.492608
H    -0.592741  -0.853224  4.075379
H    0.827449  -4.421373  2.100396
H    -0.336393  -1.947428  6.255592
H    1.059447  -5.539528  4.301292
H    0.113366  -4.048692  7.337057
O    2.775103  -0.949021  0.055592
H    1.356078  -0.429566  -0.680857
Ba    3.106625  -2.369437  4.304515
