25
Energy: -242283.305396 eV PBE+vdW (tier 2 basis)
N    -0.939597  -0.260070  0.135863
C    -0.836603  -0.197615  1.562097
C    -0.011410  0.939892  2.174088
O    -0.095688  1.258454  3.383797
H    -0.058989  -0.447704  -0.341288
H    -1.380175  0.555750  -0.284339
H    -1.851678  -0.056855  1.974202
C    -0.280996  -1.556450  2.104032
C    -0.461165  -1.842810  3.574203
C    -1.736352  -2.117409  4.114519
C    0.640946  -1.949348  4.449291
C    -1.910221  -2.494978  5.453260
C    0.490429  -2.322619  5.791052
C    -0.788487  -2.637792  6.301803
O    -0.852652  -3.032100  7.584296
H    0.780620  -1.645827  1.833352
H    -0.816412  -2.317071  1.517813
H    -2.616279  -2.079715  3.469028
H    1.648727  -1.775644  4.067861
H    -2.908457  -2.747138  5.817125
H    1.359917  -2.452665  6.436657
H    -1.727549  -3.391884  7.819309
O    0.800759  1.550378  1.348637
H    1.302033  2.263228  1.800256
Ba    -0.827693  0.496361  5.621208
