25
Energy: -242283.717065 eV PBE+vdW (tier 2 basis)
N    0.326900  -0.501984  -0.190508
C    0.635645  -0.868505  1.197616
C    2.172100  -0.983693  1.251828
O    2.797149  -1.248427  2.306843
H    -0.261103  -1.179870  -0.675774
H    1.924222  -0.584980  -0.488841
H    0.351120  -0.055208  1.882421
C    -0.055148  -2.187729  1.632022
C    0.212313  -2.695727  3.033521
C    -0.133655  -1.948290  4.181105
C    0.710514  -3.995401  3.242521
C    -0.007432  -2.474695  5.470214
C    0.836751  -4.547735  4.527896
C    0.442709  -3.802143  5.658531
O    0.489302  -4.252881  6.924289
H    0.209065  -2.974919  0.910568
H    -1.139114  -2.024590  1.529052
H    -0.551152  -0.945435  4.074682
H    0.973534  -4.616066  2.384185
H    -0.329116  -1.902376  6.341123
H    1.176912  -5.579282  4.639689
H    0.639301  -5.214823  6.969551
O    2.758698  -0.795026  0.125975
H    -0.099816  0.419152  -0.283903
Ba    3.008301  -2.206367  4.502394
