25
Energy: -242283.863133 eV PBE+vdW (tier 2 basis)
N    1.014429  -0.331846  0.300548
C    0.231244  0.036497  1.505603
C    1.221884  0.411169  2.606333
O    2.337069  -0.119572  2.659578
H    1.413620  0.518067  -0.111846
H    0.370371  -0.687741  -0.412191
H    -0.448634  0.883348  1.313856
C    -0.638914  -1.174858  1.978387
C    0.122963  -2.471384  2.137786
C    0.763047  -2.811779  3.346301
C    0.215891  -3.396051  1.074409
C    1.488428  -4.000500  3.487439
C    0.937941  -4.585668  1.191722
C    1.566360  -4.915089  2.414054
O    2.206749  -6.091872  2.467454
H    -1.440376  -1.301043  1.236691
H    -1.138070  -0.901743  2.918162
H    0.690223  -2.147152  4.208415
H    -0.313244  -3.202577  0.139522
H    1.942097  -4.244349  4.449845
H    0.965073  -5.309061  0.376566
H    2.492698  -6.318204  3.371329
O    0.871027  1.249641  3.557673
H    -0.000360  1.667263  3.408245
Ba    3.049486  -2.122493  1.258118
