25
Energy: -242283.626709 eV PBE+vdW (tier 2 basis)
N    -0.490822  0.397218  0.218117
C    -0.196690  0.082663  1.664197
C    1.306707  0.115438  1.887252
O    1.740699  0.133210  3.082793
H    -1.340875  -0.162235  -0.051658
H    -0.678130  1.392384  0.051429
H    -0.687492  0.841076  2.285085
C    -0.793888  -1.326856  1.996385
C    -2.199753  -1.447586  1.474550
C    -2.447457  -2.050273  0.223345
C    -3.289751  -0.912644  2.181784
C    -3.732824  -2.118783  -0.304724
C    -4.578656  -0.982237  1.668732
C    -4.811054  -1.582753  0.417091
O    -6.031314  -1.687770  -0.142712
H    -0.740247  -1.441988  3.086278
H    -0.151206  -2.100770  1.550458
H    -1.631373  -2.532657  -0.321786
H    -3.136488  -0.456753  3.161604
H    -3.926570  -2.608238  -1.257749
H    -5.414333  -0.581828  2.244549
H    -6.719354  -1.325075  0.441409
O    2.090677  0.058716  0.874931
H    0.322707  0.119841  -0.356431
Ba    4.136913  0.019460  2.425517
