25
Energy: -242283.910432 eV PBE+vdW (tier 2 basis)
N    -0.712574  2.714439  2.500849
C    -0.189066  1.387626  3.023643
C    0.649286  0.794446  1.886327
O    1.371997  -0.204896  2.134556
H    -1.664407  2.932760  2.820902
H    -0.102441  3.498988  2.767860
H    0.413953  1.590460  3.914454
C    -1.335266  0.379704  3.370169
C    -1.714245  -0.611288  2.285167
C    -1.315321  -1.958138  2.394776
C    -2.463733  -0.250446  1.151501
C    -1.641646  -2.905213  1.418914
C    -2.799214  -1.179083  0.160470
C    -2.409622  -2.526967  0.296975
O    -2.706504  -3.494364  -0.593234
H    -2.220272  0.944854  3.703044
H    -0.995629  -0.176243  4.251753
H    -0.750964  -2.281738  3.270314
H    -2.821793  0.773057  1.029998
H    -1.379932  -3.955938  1.548862
H    -3.412159  -0.868155  -0.687186
H    -3.370836  -3.201501  -1.242670
O    0.395960  1.227275  0.710977
H    -0.675969  2.621403  1.458285
Ba    0.681396  -1.264045  -0.072704
