25
Energy: -242282.990967 eV PBE+vdW (tier 2 basis)
N    -1.130969  -0.575684  0.164961
C    -0.294087  -0.229991  1.359859
C    1.232232  -0.309545  1.128847
O    2.022213  -0.362955  2.033371
H    -0.693488  -0.126635  -0.650032
H    -1.001537  -1.577183  -0.026563
H    -0.483451  0.834604  1.586819
C    -0.695381  -1.081146  2.575995
C    -2.157186  -0.945049  2.924011
C    -2.672632  0.245806  3.480590
C    -3.070485  -1.998521  2.701716
C    -4.031815  0.392313  3.788258
C    -4.433102  -1.873045  2.997601
C    -4.928531  -0.681150  3.574723
O    -6.234022  -0.648750  3.873245
H    -0.061879  -0.775875  3.419569
H    -0.451755  -2.136056  2.381796
H    -1.997066  1.072890  3.709543
H    -2.706811  -2.952261  2.313742
H    -4.383262  1.313908  4.256743
H    -5.116618  -2.711845  2.860427
H    -6.478664  0.133486  4.401347
O    1.525596  -0.267230  -0.190279
H    2.500499  -0.276763  -0.292662
Ba    -3.778897  0.065533  0.598448
