25
Energy: -242282.794166 eV PBE+vdW (tier 2 basis)
N    0.260480  -0.910456  0.181152
C    0.157835  -0.259474  1.472326
C    1.345923  0.669703  1.716135
O    1.976346  1.149023  0.708712
H    -0.648304  -1.190785  -0.183980
H    0.720443  -0.313187  -0.505999
H    -0.703462  0.446466  1.524999
C    -0.122023  -1.255203  2.608143
C    1.003022  -2.335341  2.896321
C    0.453605  -3.233392  3.942696
C    1.466285  -3.034687  1.671506
C    0.250462  -4.558059  3.737792
C    1.253368  -4.365281  1.469795
C    0.628027  -5.138006  2.484576
O    0.451722  -6.414462  2.218508
H    -1.045119  -1.794026  2.354993
H    -0.308391  -0.707122  3.539764
H    0.158931  -2.782098  4.891665
H    2.005474  -2.462124  0.922829
H    -0.189469  -5.188519  4.512514
H    1.582174  -4.873594  0.564340
H    0.047708  -6.904398  2.962341
O    1.646113  1.026383  2.909393
H    1.848561  -1.764770  3.326970
Ba    3.166289  2.829408  2.090513
