25
Energy: -242283.909631 eV PBE+vdW (tier 2 basis)
N    -1.155957  0.977571  -0.060429
C    -0.784971  0.690879  1.384580
C    0.740148  0.816561  1.456300
O    1.284487  0.835785  2.589768
H    -1.935093  0.402562  -0.404735
H    -0.279352  0.787709  -0.601513
H    -1.284741  1.434149  2.013725
C    -1.187599  -0.753451  1.839009
C    -0.094654  -1.806758  1.816445
C    0.440977  -2.285895  3.025825
C    0.415075  -2.353684  0.622373
C    1.435296  -3.271616  3.055600
C    1.415620  -3.329406  0.626748
C    1.916092  -3.823412  1.850174
O    2.853309  -4.789089  1.779657
H    -2.050246  -1.088862  1.241416
H    -1.562810  -0.659977  2.864443
H    0.069312  -1.892114  3.972454
H    0.015903  -2.038819  -0.342822
H    1.790276  -3.651353  4.015612
H    1.764659  -3.778181  -0.303296
H    3.016361  -5.202858  2.646447
O    1.371941  0.680424  0.353714
H    -1.405941  1.965571  -0.203371
Ba    3.112906  -0.717734  1.734878
