25
Energy: -242284.036352 eV PBE+vdW (tier 2 basis)
N    1.255223  -1.932432  0.848284
C    0.196208  -0.899101  0.992921
C    0.876194  0.408082  1.370752
O    1.921385  0.443564  2.037909
H    0.802826  -2.838689  0.694680
H    1.773494  -1.755755  -0.019108
H    -0.368662  -0.737701  0.062965
C    -0.822933  -1.314449  2.102169
C    -0.189496  -1.730126  3.410692
C    0.141821  -0.788739  4.409591
C    0.096580  -3.083480  3.682827
C    0.761369  -1.167631  5.602449
C    0.710317  -3.487447  4.874872
C    1.032815  -2.530284  5.861768
O    1.589886  -2.821691  7.046317
H    -1.417037  -2.144260  1.694287
H    -1.525381  -0.483647  2.251570
H    -0.104881  0.264309  4.267275
H    -0.191319  -3.852859  2.964185
H    0.976116  -0.434199  6.379951
H    0.878564  -4.549201  5.064342
H    1.615046  -3.780496  7.219156
O    0.228687  1.474925  0.962370
H    0.679956  2.297140  1.253560
Ba    2.867220  -1.667835  3.181216
