25
Energy: -242282.544481 eV PBE+vdW (tier 2 basis)
N    -0.053342  0.162197  -0.003461
C    -0.028950  0.015452  1.439866
C    1.241359  0.726679  1.910164
O    2.386225  0.353506  1.460041
H    -0.954536  -0.045880  -0.426541
H    0.703503  -0.309662  -0.491754
H    -0.860987  0.608664  1.845898
C    -0.194789  -1.394081  2.074047
C    0.796231  -2.527509  1.575470
C    1.121639  -3.435635  2.697839
C    0.282812  -3.219731  0.370656
C    0.912518  -4.776741  2.656088
C    0.065835  -4.559369  0.325564
C    0.373101  -5.357915  1.470832
O    0.190612  -6.656858  1.498643
H    -1.223434  -1.736949  1.900993
H    -0.089126  -1.296565  3.164674
H    1.532411  -2.986931  3.603802
H    0.055597  -2.614840  -0.507138
H    1.140978  -5.431295  3.496290
H    -0.331865  -5.036316  -0.571890
H    -0.181457  -7.010547  0.665323
O    1.144344  1.736527  2.687201
H    1.730585  -1.991585  1.292167
Ba    3.373736  2.574384  2.117230
