25
Energy: -242282.332623 eV PBE+vdW (tier 2 basis)
N    -0.869342  0.777046  -0.204276
C    -0.493179  0.387662  1.155574
C    0.993324  0.219002  0.913727
O    1.843470  1.127497  1.060238
H    -1.400447  1.642391  -0.252109
H    -1.325129  0.029564  -0.725708
H    -0.595751  1.248578  1.828295
C    -1.226695  -0.831475  1.762065
C    -1.159866  -2.087807  0.923889
C    -0.200493  -3.092295  1.189655
C    -2.043170  -2.304986  -0.149730
C    -0.097817  -4.235587  0.395400
C    -1.953788  -3.441837  -0.945769
C    -0.968535  -4.412269  -0.690386
O    -0.818948  -5.537184  -1.417774
H    -2.271582  -0.518384  1.898905
H    -0.825992  -1.017404  2.769596
H    0.416488  -3.024022  2.089913
H    -2.852905  -1.597648  -0.338421
H    0.615024  -5.023836  0.633322
H    -2.669269  -3.592035  -1.755838
H    -1.512488  -5.613530  -2.095619
O    1.480295  -0.923480  0.381988
H    0.795194  -1.693374  0.426961
Ba    3.860618  0.432036  -0.141331
