25
Energy: -242283.587432 eV PBE+vdW (tier 2 basis)
N    -0.209435  -0.484635  -0.258420
C    -0.126924  0.059443  1.148791
C    1.326551  0.483163  1.387767
O    1.670943  0.856240  2.550881
H    0.627177  -0.172753  -0.782866
H    -1.064629  -0.202629  -0.750699
H    -0.734439  0.975233  1.198049
C    -0.663337  -0.999402  2.147440
C    -0.091867  -2.366896  1.871901
C    1.154415  -2.760813  2.393273
C    -0.777508  -3.278416  1.047786
C    1.698919  -4.002094  2.099143
C    -0.239519  -4.528612  0.738730
C    1.008988  -4.896830  1.259817
O    1.603012  -6.083674  1.023394
H    -1.759576  -1.011431  2.072816
H    -0.421689  -0.642672  3.156602
H    1.677864  -2.102490  3.089594
H    -1.783552  -3.041671  0.690585
H    2.644048  -4.324453  2.534031
H    -0.805404  -5.225990  0.119761
H    1.034697  -6.660910  0.484924
O    2.140373  0.485985  0.398707
H    -0.187623  -1.532070  -0.181625
Ba    4.009519  1.410378  1.890617
