25
Energy: -242282.01125 eV PBE+vdW (tier 2 basis)
N    -0.035551  -0.857563  -0.041748
C    -0.110030  -0.411236  1.333478
C    1.223063  -0.137503  2.077459
O    1.349676  -0.246899  3.275761
H    0.084999  -0.083487  -0.692679
H    0.737880  -1.505218  -0.196819
H    -0.642741  0.554643  1.347464
C    -0.929868  -1.421912  2.193601
C    -2.349517  -1.467209  1.719348
C    -3.358122  -0.686373  2.331449
C    -2.712528  -2.194943  0.558249
C    -4.669892  -0.647660  1.840862
C    -4.020948  -2.157719  0.042901
C    -5.007205  -1.353027  0.658079
O    -6.270390  -1.231684  0.223483
H    -0.853719  -1.113532  3.244205
H    -0.444533  -2.405766  2.099979
H    -3.108323  -0.082834  3.207251
H    -1.953554  -2.782135  0.041195
H    -5.426508  -0.016262  2.308933
H    -4.255733  -2.704903  -0.872944
H    -6.396331  -1.604048  -0.669049
O    2.181845  0.256336  1.222283
H    2.987027  0.461461  1.741237
Ba    -4.228740  -3.498339  2.810295
