18
Energy: -602071.630025 eV PBE+vdW (tier 2 basis)
N    0.717007  1.121826  1.765204
C    -0.348929  0.078321  2.047368
C    0.192842  -1.328812  1.858476
O    -0.484880  -2.332802  2.081484
H    1.522679  1.044868  2.405539
H    1.085711  1.042850  0.804298
H    -0.637841  0.201638  3.100964
C    -1.635509  0.344618  1.166656
O    -2.677889  -0.465293  1.624582
C    -1.396965  0.182855  -0.331907
H    -1.916168  1.394501  1.383505
H    0.323901  2.070821  1.871894
H    -2.333450  0.396221  -0.860685
H    -1.083840  -0.838382  -0.593227
H    -0.654434  0.892741  -0.727760
O    1.436614  -1.364898  1.414411
H    1.754298  -2.289479  1.298938
Pb    -2.966149  -2.458593  2.200261
