18
Energy: -602071.450518 eV PBE+vdW (tier 2 basis)
N    0.020603  0.474881  -0.082023
C    0.317317  0.081612  1.345753
C    1.641914  -0.731925  1.236013
O    2.188508  -1.127119  2.362748
H    0.105538  1.487226  -0.242273
H    -0.898282  0.173858  -0.431622
H    0.483337  0.997199  1.927763
C    -0.852717  -0.720335  1.972590
O    -0.519337  -0.841653  3.413137
C    -1.111311  -2.084324  1.362048
H    -1.755732  -0.091101  1.933315
H    -1.351488  -0.902651  3.919235
H    -1.413652  -2.001729  0.307399
H    -1.943418  -2.582985  1.874647
H    -0.226295  -2.733901  1.400193
O    2.090041  -0.953571  0.127644
H    0.793705  -0.028897  -0.617267
Pb    1.609270  -1.545584  4.379701
