18
Energy: -602071.423232 eV PBE+vdW (tier 2 basis)
N    -0.020140  -0.062877  -0.061892
C    -0.005252  0.015936  1.451456
C    1.437545  0.059571  1.944017
O    2.321987  -0.677495  1.382597
H    0.595688  -0.823564  -0.392963
H    0.293908  0.815618  -0.500374
H    -0.505762  0.946402  1.743562
C    -0.762513  -1.215540  2.075919
O    -0.289562  -1.223842  3.413601
C    -0.524481  -2.544491  1.363018
H    -1.835574  -0.957184  2.039086
H    -0.944708  -1.646593  3.993729
H    -1.032575  -3.333970  1.931981
H    0.539922  -2.809756  1.312678
H    -0.964773  -2.584083  0.354746
O    1.727238  0.801365  2.937787
H    -0.972838  -0.253848  -0.408791
Pb    3.834892  -0.115647  3.119838
