18
Energy: -602071.856241 eV PBE+vdW (tier 2 basis)
N    0.144678  1.374833  1.538554
C    0.363015  0.224587  2.455294
C    1.880627  0.066952  2.634073
O    2.649493  0.326508  1.688391
H    0.395564  2.260094  1.994218
H    -0.848925  1.451223  1.293140
H    -0.131680  0.375820  3.427001
C    -0.209855  -1.071828  1.812952
O    0.379047  -1.107026  0.458499
C    -1.724404  -1.129223  1.763035
H    0.190335  -1.935756  2.365571
H    0.137987  -1.933006  -0.000931
H    -2.135777  -1.129842  2.781698
H    -2.050483  -2.064837  1.289151
H    -2.173467  -0.298367  1.201903
O    2.396077  -0.394518  3.736859
H    1.761749  -0.524697  4.471621
Pb    1.648019  0.776081  -0.366027
