18
Energy: -602070.716601 eV PBE+vdW (tier 2 basis)
N    0.801393  -0.238539  0.173300
C    0.087440  -0.011737  1.403437
C    1.223208  0.294354  2.389992
O    1.698121  1.469172  2.512737
H    0.513851  0.319724  -0.623702
H    1.019343  -1.199178  -0.072548
H    -0.525134  0.897851  1.322937
C    -0.855096  -1.122130  1.901677
O    0.101410  -2.322072  2.185858
C    -1.905480  -1.584353  0.935188
H    -1.269952  -0.858534  2.885357
H    -0.346152  -3.060650  2.650418
H    -2.491647  -2.416246  1.347194
H    -1.484387  -1.878274  -0.032758
H    -2.609998  -0.755914  0.770393
O    1.793175  -0.679208  3.046475
H    0.895670  -1.932646  2.721049
Pb    3.434122  0.888522  3.871373
