18
Energy: -602071.142503 eV PBE+vdW (tier 2 basis)
N    0.045540  0.330233  0.118979
C    0.137023  0.132156  1.590519
C    1.580266  0.212760  2.027000
O    2.514156  -0.087363  1.233413
H    -0.154425  1.312569  -0.104883
H    -0.792248  -0.220368  -0.165188
H    -0.478242  0.878453  2.115726
C    -0.450395  -1.330361  1.905545
O    -1.525359  -1.521641  1.007942
C    -0.810098  -1.525068  3.365123
H    0.326801  -2.057156  1.604626
H    -2.381809  -1.451966  1.467824
H    -1.223885  -2.532319  3.504128
H    -1.559130  -0.793397  3.702208
H    0.068991  -1.464352  4.021087
O    1.924258  0.508635  3.243504
H    1.178743  0.759791  3.828171
Pb    2.132727  -0.398956  -0.972318
