18
Energy: -602070.74218 eV PBE+vdW (tier 2 basis)
N    0.790264  -0.746875  0.075770
C    0.177576  -0.134868  1.231073
C    1.280086  0.243563  2.222268
O    1.945665  1.324406  2.087655
H    1.196220  -0.100481  -0.596268
H    1.388897  -1.552706  0.239869
H    -0.310716  0.799046  0.914803
C    -0.934014  -0.991894  1.862524
O    -0.174753  -2.209327  2.482504
C    -1.968541  -1.526918  0.918560
H    -1.370140  -0.472045  2.727354
H    -0.762628  -2.791074  3.009948
H    -2.533454  -0.675790  0.510538
H    -2.695181  -2.162612  1.441667
H    -1.518960  -2.072126  0.082380
O    1.636473  -0.587991  3.163390
H    0.593076  -1.813030  3.034305
Pb    3.359129  0.955724  3.843664
