18
Energy: -602069.50668 eV PBE+vdW (tier 2 basis)
N    0.386262  -0.455524  -0.082181
C    0.024585  0.021218  1.201719
C    1.268366  0.436744  2.009879
O    2.399332  0.414996  1.638868
H    -0.074720  -0.053116  -0.891848
H    1.370165  -0.675898  -0.229167
H    -0.644619  0.894200  1.134343
C    -0.765045  -1.118730  1.971811
O    -1.240281  -0.516796  3.301121
C    0.016190  -2.383163  2.234889
H    -1.690420  -1.301951  1.408887
H    -0.461518  0.072246  3.617517
H    -0.598038  -3.139757  2.740749
H    0.918843  -2.203164  2.834167
H    0.325256  -2.816777  1.274485
O    0.881342  0.830118  3.291219
H    1.676292  1.084191  3.809400
Pb    -3.122015  -1.039685  4.364087
