30
Energy: -37702.9668644 eV PBE+vdW (tier 2 basis)
C    -2.735200  0.236218  0.873820
C    -1.880797  0.165367  2.099859
O    -0.632354  0.042415  2.007984
H    -2.523651  -0.633121  0.237682
H    -2.449260  1.126948  0.296773
H    -3.808691  0.278943  1.084584
N    -2.497992  0.237451  3.299028
C    -1.894652  0.230927  4.644128
C    -0.818540  1.335519  4.766753
O    0.394583  1.100082  4.500058
H    -3.510039  0.320486  3.271309
H    -2.724597  0.531293  5.292260
C    -1.377462  -1.143730  5.197153
C    -1.376503  -2.385399  4.274446
C    0.012248  -2.921521  3.993736
O    0.946510  -2.148466  3.635199
N    0.227206  -4.224742  4.115736
H    -2.003439  -1.378278  6.064461
H    -0.369101  -0.984591  5.596996
H    -1.821135  -2.161503  3.292834
H    -2.004327  -3.173873  4.705409
H    -0.497893  -4.865465  4.420895
H    1.143935  -4.611857  3.902924
N    -1.190091  2.541553  5.179718
C    -2.527513  3.015936  5.551468
H    -0.425136  3.212372  5.253147
H    -2.906620  2.490626  6.437273
H    -3.232903  2.914309  4.718104
H    -2.449490  4.078190  5.798609
Ca    1.332902  -0.127087  2.945653
