30
Energy: -37701.9317547 eV PBE+vdW (tier 2 basis)
C    2.525610  -0.134912  2.827114
C    1.361726  0.355171  3.635520
O    1.362373  0.362913  4.873953
H    3.359228  0.568655  2.963440
H    2.314636  -0.226915  1.755824
H    2.856379  -1.102284  3.222320
N    0.261623  0.807331  2.940828
C    -0.789808  1.606535  3.573910
C    -1.758013  0.762035  4.444639
O    -3.036855  0.855936  4.305801
H    0.318297  0.807171  1.928481
H    -0.292066  2.277688  4.297846
C    -1.506448  2.500035  2.555018
C    -2.147120  1.775884  1.334214
C    -3.502279  2.340474  0.981782
O    -4.474247  2.216830  1.796209
N    -3.679314  2.961293  -0.171479
H    -0.783235  3.240784  2.190692
H    -2.265899  3.078766  3.096796
H    -2.316281  0.711096  1.555794
H    -1.482233  1.813853  0.462577
H    -2.926861  3.071716  -0.844249
H    -4.593375  3.336950  -0.418052
N    -1.211456  0.007345  5.359855
C    -1.937470  -0.833522  6.305987
H    -0.152769  0.072005  5.389284
H    -2.633579  -1.498071  5.780175
H    -2.495044  -0.217382  7.023833
H    -1.210619  -1.439490  6.852964
Ca    -4.944693  1.409746  3.717693
