30
Energy: -37701.7488477 eV PBE+vdW (tier 2 basis)
C    0.319025  -0.386268  -0.010111
C    0.061247  -0.178167  1.440011
O    0.878376  0.492262  2.153146
H    -0.301613  -1.174865  -0.448395
H    1.378488  -0.602025  -0.185947
H    0.082261  0.563213  -0.516504
N    -1.052005  -0.681218  1.980490
C    -1.630755  -0.251904  3.264857
C    -0.947181  -1.031651  4.407236
O    0.187985  -0.618014  4.821636
H    -1.687518  -1.152186  1.341036
H    -1.332443  0.798732  3.399349
C    -3.174186  -0.310465  3.215652
C    -3.875286  1.008726  2.831211
C    -3.371586  1.675869  1.549654
O    -2.159664  1.785509  1.326573
N    -4.316492  2.157586  0.717127
H    -3.554273  -0.577214  4.211728
H    -3.493818  -1.120418  2.539638
H    -3.725343  1.744850  3.636937
H    -4.955717  0.818352  2.792629
H    -5.307239  2.097309  0.917530
H    -4.027553  2.692606  -0.096203
N    -1.524708  -2.100063  4.919900
C    -0.983612  -2.941648  5.989153
H    -2.431179  -2.366011  4.540971
H    -1.751487  -3.083808  6.757777
H    -0.110466  -2.453645  6.426729
H    -0.697423  -3.919961  5.583122
Ca    1.709494  0.683835  4.065096
