30
Energy: -37701.7881463 eV PBE+vdW (tier 2 basis)
C    -0.012092  0.884318  0.172896
C    -0.068687  0.537845  1.621123
O    1.012429  0.358765  2.285353
H    0.508642  0.080879  -0.367135
H    0.580602  1.799099  0.037857
H    -1.001821  1.028255  -0.272491
N    -1.247967  0.408128  2.225051
C    -1.386951  -0.011553  3.624853
C    -2.622685  -0.863000  4.006308
O    -2.409447  -1.726825  4.857716
H    -2.080653  0.568378  1.664275
H    -0.576395  -0.731081  3.789890
C    -1.207923  1.174953  4.604376
C    -1.027609  0.746410  6.067192
C    0.118381  -0.206565  6.305163
O    1.202228  -0.116766  5.630209
N    0.001113  -1.116463  7.251412
H    -2.074172  1.847847  4.547736
H    -0.346265  1.775801  4.278212
H    -1.949115  0.307093  6.468381
H    -0.819792  1.643403  6.674712
H    -0.874612  -1.249160  7.749354
H    0.770348  -1.744411  7.471985
N    -3.850303  -0.616621  3.496655
C    -4.303395  0.430797  2.588063
H    -4.555018  -1.266532  3.840959
H    -5.377581  0.580263  2.737124
H    -4.164146  0.159990  1.528398
H    -3.822981  1.394298  2.802995
Ca    2.357489  0.112025  3.880462
