30
Energy: -37703.0640651 eV PBE+vdW (tier 2 basis)
C    -0.443731  -0.318905  0.129403
C    -0.225997  -0.102300  1.594031
O    0.931214  0.090266  2.047744
H    0.201936  -1.138749  -0.211486
H    -0.122221  0.582422  -0.411199
H    -1.482435  -0.540617  -0.136151
N    -1.311913  -0.125848  2.395913
C    -1.413026  0.092005  3.852469
C    -0.821578  1.460472  4.267824
O    0.416871  1.609914  4.461543
H    -2.196048  -0.292263  1.924234
H    -2.495463  0.155659  4.015420
C    -0.890472  -1.051968  4.794170
C    -0.186626  -2.285097  4.182484
C    1.266762  -2.408284  4.593821
O    2.040289  -1.408739  4.557001
N    1.718065  -3.594497  4.979744
H    -1.762768  -1.409953  5.351031
H    -0.232823  -0.594048  5.542712
H    -0.191543  -2.250833  3.082402
H    -0.731072  -3.198888  4.447615
H    1.114899  -4.408098  5.040710
H    2.697339  -3.709836  5.231022
N    -1.683342  2.453907  4.442119
C    -1.324279  3.813317  4.849149
H    -2.669022  2.265541  4.280138
H    -2.071264  4.179672  5.560842
H    -1.302447  4.479052  3.976726
H    -0.340183  3.798907  5.323869
Ca    2.216879  0.592789  3.729703
