30
Energy: -37702.0029959 eV PBE+vdW (tier 2 basis)
C    0.798525  -0.122440  0.274875
C    -0.172485  -0.646503  1.279207
O    -0.537571  -1.881168  1.230561
H    0.370794  -0.240169  -0.730782
H    1.720182  -0.718885  0.305643
H    1.045432  0.931288  0.436419
N    -0.644808  0.166946  2.202270
C    -1.711161  -0.056949  3.175507
C    -2.409335  1.349266  3.230121
O    -1.744868  2.323842  2.875729
H    -0.453245  1.187981  2.152792
H    -2.395264  -0.833830  2.804289
C    -1.171339  -0.381390  4.586510
C    -0.373342  -1.696680  4.771280
C    -1.220610  -2.944969  4.773556
O    -1.436999  -3.605797  3.705438
N    -1.764264  -3.346322  5.912955
H    -2.014766  -0.357761  5.291310
H    -0.507627  0.442835  4.883394
H    0.163837  -1.629438  5.727507
H    0.389675  -1.798559  3.989041
H    -1.580206  -2.869364  6.790576
H    -2.345323  -4.181414  5.942713
N    -3.664285  1.387293  3.702273
C    -4.421184  2.630455  3.864860
H    -4.135214  0.515477  3.919231
H    -5.282601  2.644138  3.186355
H    -3.760698  3.468095  3.626294
H    -4.771431  2.724978  4.899218
Ca    -1.101818  -3.826957  1.614859
