30
Energy: -37702.5057088 eV PBE+vdW (tier 2 basis)
C    0.183203  -0.330978  1.711000
C    -0.724007  0.576824  2.465924
O    -0.290050  1.585783  3.087127
H    0.648078  0.209047  0.874064
H    -0.306591  -1.238246  1.345861
H    1.004088  -0.614293  2.385626
N    -2.071131  0.342515  2.501092
C    -2.882406  -0.006906  1.336882
C    -2.534163  0.954140  0.172608
O    -2.026151  2.086304  0.434541
H    -2.550283  0.910323  3.199141
H    -2.669666  -1.042885  1.039767
C    -4.388807  0.076495  1.693538
C    -5.065730  1.470679  1.781191
C    -4.700478  2.355929  2.958579
O    -3.551348  2.885405  3.059491
N    -5.619203  2.577761  3.888246
H    -4.540267  -0.487970  2.625092
H    -4.937484  -0.478078  0.921613
H    -6.149540  1.297988  1.784216
H    -4.854398  2.057091  0.873853
H    -5.411316  3.186061  4.677952
H    -6.552704  2.182699  3.831389
N    -2.789175  0.604515  -1.080274
C    -3.366507  -0.637054  -1.601723
H    -2.559424  1.322003  -1.769465
H    -3.199403  -1.470923  -0.913856
H    -2.877866  -0.875441  -2.552035
H    -4.443213  -0.520423  -1.780302
Ca    -1.532059  3.259636  2.261860
