30
Energy: -37702.4505424 eV PBE+vdW (tier 2 basis)
C    -0.643370  0.812493  0.424528
C    -0.682805  0.273748  1.811883
O    -0.275917  0.943124  2.801153
H    -1.406371  1.596404  0.306173
H    -0.781870  0.045908  -0.343598
H    0.327758  1.304826  0.279741
N    -1.178007  -0.978316  2.057622
C    -2.425937  -1.494239  1.512231
C    -3.548443  -0.429200  1.693771
O    -3.426869  0.494233  2.547646
H    -0.985347  -1.286293  3.010282
H    -2.313980  -1.670880  0.431712
C    -2.783872  -2.863732  2.165552
C    -2.340848  -3.162080  3.621871
C    -2.858245  -2.274742  4.738516
O    -2.455173  -1.081056  4.868546
N    -3.720970  -2.794154  5.603205
H    -2.317230  -3.647899  1.555868
H    -3.867964  -3.014157  2.076402
H    -1.241638  -3.156732  3.700633
H    -2.627728  -4.203464  3.818351
H    -4.023115  -3.761666  5.546622
H    -4.043943  -2.247321  6.398269
N    -4.607819  -0.539865  0.905579
C    -5.779593  0.338889  0.923132
H    -4.605182  -1.285078  0.212122
H    -5.892703  0.819320  -0.055957
H    -5.643038  1.102056  1.691990
H    -6.679953  -0.248282  1.139432
Ca    -2.026829  0.965156  4.204724
