30
Energy: -37701.648011 eV PBE+vdW (tier 2 basis)
C    -0.191946  -1.233055  -0.934311
C    0.050271  -0.764629  0.458588
O    1.233813  -0.840012  0.962042
H    -1.239277  -1.164690  -1.241043
H    0.167749  -2.262640  -1.059285
H    0.413245  -0.610165  -1.610064
N    -0.908055  -0.251987  1.213159
C    -2.360185  -0.357509  1.162335
C    -2.794930  0.525967  2.368204
O    -1.982844  0.674378  3.295879
H    -0.664270  0.138944  2.144442
H    -2.754542  0.038382  0.218772
C    -2.870094  -1.824272  1.376518
C    -1.890563  -2.829381  2.033742
C    -1.271096  -2.471939  3.371968
O    -0.019493  -2.247632  3.470386
N    -2.037837  -2.431603  4.447031
H    -3.135981  -2.257720  0.403794
H    -3.806846  -1.782811  1.948939
H    -1.060236  -3.053550  1.354481
H    -2.440127  -3.775102  2.158391
H    -3.032087  -2.631464  4.402805
H    -1.649635  -2.174137  5.351365
N    -4.033997  1.033022  2.371580
C    -5.016501  1.022410  1.284940
H    -4.250941  1.590185  3.195707
H    -5.231216  0.004456  0.937195
H    -4.692473  1.641738  0.437858
H    -5.950967  1.439634  1.670408
Ca    1.909040  -1.626102  2.798819
