30
Energy: -37702.5763465 eV PBE+vdW (tier 2 basis)
C    1.064351  -0.014178  0.238826
C    0.809211  -0.290474  1.679316
O    1.746423  -0.552275  2.482690
H    1.626712  -0.870270  -0.163410
H    1.720097  0.860188  0.128715
H    0.154488  0.117220  -0.353561
N    -0.464777  -0.264889  2.177423
C    -1.444616  0.781336  1.892370
C    -0.759494  2.167152  2.038480
O    0.253031  2.291316  2.786913
H    -0.530951  -0.668912  3.111073
H    -1.821431  0.668349  0.864898
C    -2.657661  0.650820  2.849505
C    -2.524331  1.147416  4.313829
C    -1.660652  0.329064  5.254585
O    -0.397811  0.291254  5.130938
N    -2.254407  -0.348302  6.227147
H    -2.990766  -0.397115  2.823416
H    -3.479492  1.230158  2.409078
H    -3.541356  1.209713  4.721576
H    -2.125143  2.172966  4.335493
H    -1.698751  -0.888917  6.887340
H    -3.260272  -0.328679  6.363657
N    -1.295753  3.181539  1.377787
C    -0.829423  4.569745  1.419682
H    -2.087470  2.981404  0.769976
H    -0.543578  4.890882  0.411078
H    0.033589  4.637539  2.085227
H    -1.632987  5.218939  1.787157
Ca    1.440222  0.948009  4.118796
