30
Energy: -37702.686048 eV PBE+vdW (tier 2 basis)
C    -1.423314  -2.581824  0.479720
C    -1.228014  -1.557803  1.544705
O    -0.112861  -0.985380  1.708381
H    -2.450907  -2.954462  0.417912
H    -0.743749  -3.425101  0.666242
H    -1.132511  -2.149918  -0.487299
N    -2.276357  -1.238908  2.344849
C    -2.103576  -0.225563  3.376157
C    -1.481359  -0.799800  4.664712
O    -0.231597  -0.646335  4.808640
H    -3.161882  -1.720814  2.213220
H    -1.287999  0.361958  2.967605
C    -3.204231  0.844850  3.524631
C    -2.789471  2.138720  2.774185
C    -1.471327  2.767555  3.221903
O    -0.363913  2.146954  3.168941
N    -1.507247  4.021988  3.653617
H    -3.368337  1.070441  4.586904
H    -4.168936  0.503656  3.125576
H    -3.596565  2.876558  2.856731
H    -2.679137  1.918563  1.700197
H    -2.370378  4.554728  3.690406
H    -0.646388  4.497896  3.914624
N    -2.239811  -1.429470  5.548657
C    -1.758172  -2.045027  6.788377
H    -3.237033  -1.492928  5.358578
H    -1.974980  -3.119734  6.774702
H    -2.262541  -1.586854  7.647170
H    -0.680327  -1.887541  6.867077
Ca    0.939924  0.323591  3.172880
