30
Energy: -37701.7279495 eV PBE+vdW (tier 2 basis)
C    0.315385  0.696247  0.397901
C    0.511449  0.158898  1.772941
O    1.693585  0.122687  2.283585
H    0.622830  1.752872  0.401290
H    -0.719278  0.635213  0.049519
H    0.979273  0.184136  -0.310676
N    -0.493906  -0.277753  2.514554
C    -1.829494  -0.753425  2.176859
C    -2.430557  -1.067078  3.579240
O    -1.645195  -1.376061  4.488786
H    -0.307970  -0.562318  3.495333
H    -2.412426  0.026016  1.668780
C    -1.806784  -2.051790  1.300601
C    -0.500548  -2.885698  1.287227
C    0.082066  -3.346383  2.609769
O    1.194729  -2.882842  3.027335
N    -0.557847  -4.264630  3.311315
H    -1.996910  -1.780229  0.254098
H    -2.656763  -2.679583  1.601584
H    0.295496  -2.339983  0.767807
H    -0.699308  -3.779693  0.676316
H    -1.432381  -4.668463  2.991129
H    -0.197944  -4.574237  4.210910
N    -3.762684  -1.023515  3.681925
C    -4.496226  -1.328826  4.910750
H    -4.299001  -0.695681  2.883898
H    -5.046993  -0.442856  5.248219
H    -3.778133  -1.621716  5.680780
H    -5.205235  -2.146633  4.735327
Ca    2.751956  -1.437622  3.228019
