30
Energy: -37702.6261456 eV PBE+vdW (tier 2 basis)
C    -0.621328  2.393835  0.120048
C    -0.724389  1.675200  1.421663
O    -0.926677  2.299147  2.501705
H    0.224155  3.094359  0.164557
H    -1.525883  2.999783  -0.024715
H    -0.490722  1.725092  -0.736910
N    -0.600881  0.323359  1.432649
C    -0.718178  -0.389934  2.696063
C    0.596652  -0.388149  3.501345
O    0.665072  0.448610  4.454194
H    -0.416674  -0.161610  0.558519
H    -1.325625  0.298582  3.273975
C    -1.594503  -1.659219  2.735621
C    -3.023411  -1.309121  3.229335
C    -3.105053  -0.679168  4.617371
O    -2.526442  0.414256  4.905390
N    -3.835481  -1.303654  5.532630
H    -1.141207  -2.403145  3.404631
H    -1.675188  -2.137085  1.750067
H    -3.644457  -2.212452  3.197158
H    -3.485359  -0.590331  2.533636
H    -4.327368  -2.168389  5.331601
H    -3.956180  -0.894966  6.456792
N    1.612842  -1.189003  3.221387
C    1.728880  -2.184746  2.159097
H    2.427892  -1.065529  3.824745
H    1.956947  -3.165833  2.592712
H    2.537429  -1.905274  1.472309
H    0.795350  -2.263403  1.596218
Ca    -0.938214  1.975790  4.711206
