30
Energy: -37701.864504 eV PBE+vdW (tier 2 basis)
C    -0.315936  1.162305  -0.023735
C    -0.542293  0.460898  1.276591
O    0.209506  0.735347  2.287381
H    -0.308300  2.249627  0.126947
H    -1.064147  0.905737  -0.780035
H    0.677228  0.881192  -0.403334
N    -1.510455  -0.429528  1.351714
C    -1.909500  -1.327119  2.435549
C    -3.198263  -1.992189  1.851025
O    -3.725573  -1.451536  0.872311
H    -2.198208  -0.530746  0.575777
H    -1.121583  -2.081869  2.578465
C    -2.164646  -0.640815  3.797290
C    -3.030922  0.633643  3.740619
C    -2.587973  1.684265  4.730088
O    -1.361697  2.027688  4.802257
N    -3.485222  2.270383  5.503535
H    -1.190094  -0.415050  4.248786
H    -2.629576  -1.372229  4.469622
H    -4.094537  0.398690  3.866013
H    -2.942698  1.109878  2.749429
H    -4.468217  2.017417  5.468541
H    -3.209001  3.010028  6.146442
N    -3.685154  -3.098448  2.435889
C    -3.120422  -3.912363  3.507906
H    -4.539641  -3.438585  1.997424
H    -3.315042  -4.967929  3.289635
H    -3.570345  -3.675873  4.482481
H    -2.033898  -3.788348  3.570372
Ca    0.612379  1.825587  4.010586
