30
Energy: -37701.6627992 eV PBE+vdW (tier 2 basis)
C    0.399838  1.419719  4.188703
C    -0.719765  1.164192  5.138789
O    -0.464233  1.046093  6.396235
H    1.142335  0.612276  4.243987
H    0.912787  2.335479  4.517612
H    0.077014  1.548870  3.152518
N    -1.979240  1.062740  4.742444
C    -2.497755  0.624585  3.446790
C    -4.029995  0.788235  3.591676
O    -4.509375  0.628547  4.725854
H    -2.726429  0.996317  5.450708
H    -2.087859  1.239512  2.637366
C    -2.130533  -0.867664  3.209596
C    -2.971378  -1.938655  3.934181
C    -3.093672  -1.941704  5.444657
O    -2.135403  -1.623943  6.228596
N    -4.234055  -2.387218  5.947058
H    -1.064194  -0.998556  3.439733
H    -2.228265  -1.082073  2.136599
H    -2.530953  -2.919399  3.681996
H    -3.986528  -1.960593  3.515691
H    -5.028523  -2.599583  5.351853
H    -4.363454  -2.488986  6.949518
N    -4.761550  1.014934  2.492970
C    -4.288782  1.312952  1.138851
H    -5.760649  1.100244  2.671305
H    -3.610070  0.536448  0.765692
H    -3.798136  2.293930  1.085556
H    -5.157058  1.333355  0.474267
Ca    -0.830580  -0.638692  7.595802
