30
Energy: -37701.9454129 eV PBE+vdW (tier 2 basis)
C    0.798570  1.264421  1.360700
C    -0.183632  0.163280  1.596344
O    0.148585  -0.838963  2.311911
H    0.389691  2.101366  0.785500
H    1.659873  0.847020  0.818477
H    1.180256  1.635890  2.320353
N    -1.392822  0.261392  1.035101
C    -2.479588  -0.728629  0.911506
C    -3.171390  -1.133825  2.224476
O    -2.533107  -1.296562  3.325529
H    -1.550393  1.120373  0.514832
H    -3.249126  -0.196124  0.343005
C    -2.086601  -1.989853  0.077176
C    -2.549350  -1.913045  -1.382398
C    -4.074239  -1.885624  -1.538086
O    -4.829823  -1.570636  -0.600570
N    -4.551054  -2.190808  -2.753698
H    -2.524395  -2.882686  0.544482
H    -0.997549  -2.122759  0.107292
H    -2.136037  -2.768256  -1.935283
H    -2.140990  -1.015653  -1.875806
H    -3.953198  -2.462534  -3.525158
H    -5.552542  -2.144436  -2.917587
N    -4.456467  -1.368091  2.106451
C    -5.339769  -1.844444  3.165092
H    -4.812389  -1.342522  1.124901
H    -6.270373  -1.267178  3.131993
H    -4.863837  -1.715848  4.140005
H    -5.580632  -2.903665  3.004596
Ca    -0.624387  -1.755078  4.050213
