30
Energy: -37701.9885119 eV PBE+vdW (tier 2 basis)
C    0.097127  0.767058  0.094359
C    -0.110165  0.291991  1.496016
O    0.817841  0.445024  2.357148
H    0.932059  0.198256  -0.340890
H    0.402219  1.821290  0.099706
H    -0.783571  0.647570  -0.544785
N    -1.276136  -0.286684  1.800357
C    -1.708555  -1.040994  2.995962
C    -1.852479  -0.198313  4.277270
O    -0.962913  0.654951  4.638360
H    -1.939449  -0.327834  1.030674
H    -2.724525  -1.365003  2.742907
C    -0.873454  -2.330286  3.207566
C    -1.451615  -3.325059  4.238910
C    -2.917251  -3.691933  4.004283
O    -3.813014  -2.823287  4.038351
N    -3.199283  -4.979006  3.761072
H    0.155808  -2.078992  3.500675
H    -0.804067  -2.821605  2.226516
H    -1.391286  -2.908726  5.255811
H    -0.813104  -4.217561  4.236880
H    -2.492538  -5.704392  3.756815
H    -4.170042  -5.255866  3.639989
N    -2.918282  -0.462845  4.992142
C    -3.262963  0.147546  6.270567
H    -3.476231  -1.296063  4.656767
H    -4.290263  0.526845  6.216381
H    -2.579582  0.968897  6.497500
H    -3.215316  -0.607257  7.066053
Ca    0.991402  1.303070  4.274757
