21
Energy: -102126.438878 eV PBE+vdW (tier 2 basis)
N    0.689640  -0.771744  0.135321
C    0.421513  -0.046559  1.389944
C    1.688911  0.627288  1.911899
O    1.737754  1.041091  3.123267
H    -0.139642  -0.768319  -0.461476
H    1.042616  -2.512780  0.741371
H    -0.250615  0.820330  1.226090
C    -0.296031  -0.935054  2.434268
C    0.339112  -2.265131  2.688956
N    0.938107  -2.987186  1.669662
C    0.382892  -3.069583  3.800400
C    1.335867  -4.179124  2.116654
N    1.000641  -4.243032  3.413058
H    -1.321456  -1.106164  2.070115
H    -0.393405  -0.385773  3.377894
H    0.015578  -2.917060  4.807038
H    1.834022  -4.953572  1.546193
H    1.165481  -5.048355  4.011809
O    2.654475  0.864663  1.100324
H    1.432986  -0.298553  -0.383379
Sr    3.682899  2.261148  2.676504
