21
Energy: -102126.159737 eV PBE+vdW (tier 2 basis)
N    -0.427330  1.051660  1.113282
C    0.353092  0.102434  1.917330
C    1.814500  0.350173  1.499765
O    2.759027  -0.394047  1.861508
H    -0.919042  0.619279  0.329717
H    -1.096263  1.595097  1.656795
H    0.285497  0.403374  2.974475
C    -0.051914  -1.398009  1.798056
C    0.136709  -2.249615  3.019611
N    1.355902  -2.763336  3.480057
C    -0.863762  -2.701992  3.846225
C    1.063024  -3.503277  4.558849
N    -0.258647  -3.481628  4.801480
H    0.444859  -1.852742  0.926814
H    -1.125093  -1.419603  1.568249
H    -1.936255  -2.549541  3.823125
H    1.764323  -4.060624  5.171836
H    -0.730465  -3.972599  5.557486
O    1.990399  1.372243  0.747381
H    0.989690  1.694365  0.630124
Sr    3.656132  -2.274318  2.691406
