21
Energy: -102125.668679 eV PBE+vdW (tier 2 basis)
N    -0.982746  0.138385  1.503500
C    0.390656  -0.080357  2.069784
C    1.370567  0.123486  0.896302
O    0.968132  0.293690  -0.238089
H    -1.371090  0.987416  1.926047
H    -0.776157  0.402325  0.514458
H    0.602627  0.679161  2.834944
C    0.585603  -1.481869  2.695862
C    -0.262869  -1.778264  3.892717
N    -1.633559  -2.052686  3.799478
C    0.110648  -1.868234  5.209869
C    -2.054368  -2.301007  5.046410
N    -1.028611  -2.194697  5.908595
H    1.641156  -1.577209  2.981329
H    0.443680  -2.255869  1.915401
H    1.071626  -1.744922  5.694947
H    -3.063724  -2.558234  5.348906
H    -1.085699  -2.346078  6.913437
O    2.639166  0.069393  1.289036
H    3.228920  0.212232  0.518382
Sr    -2.614961  -1.797662  1.588686
