21
Energy: -102126.142076 eV PBE+vdW (tier 2 basis)
N    -0.031526  0.949790  0.694813
C    0.390309  -0.221595  1.413236
C    1.066881  -1.325118  0.570383
O    1.209571  -1.162115  -0.686390
H    0.746221  1.495774  0.329649
H    -0.666985  0.745414  -0.075883
H    1.161782  0.091618  2.138116
C    -0.816189  -0.805259  2.223031
C    -0.489940  -1.330000  3.578164
N    0.498043  -2.274325  3.817925
C    -1.035942  -1.044729  4.804233
C    0.563711  -2.560559  5.123243
N    -0.369278  -1.820267  5.731281
H    -1.341402  -1.577104  1.639114
H    -1.518886  0.027486  2.345294
H    -1.832385  -0.366625  5.083476
H    1.242972  -3.254376  5.603066
H    -0.550857  -1.830619  6.732478
O    1.516170  -2.409378  1.129307
H    1.092116  -2.642987  3.065677
Sr    2.375613  -3.129027  -0.979213
