21
Energy: -102125.741623 eV PBE+vdW (tier 2 basis)
N    1.784841  -1.891087  0.700010
C    0.592161  -1.140786  1.056303
C    0.959075  -0.095235  2.107147
O    0.797038  -0.296683  3.333043
H    2.305367  -2.276296  1.486313
H    2.416705  -1.430015  0.049088
H    0.235003  -0.619136  0.154612
C    -0.513185  -2.109588  1.535432
C    -1.862752  -1.520788  1.815011
N    -2.255697  -1.010405  3.060037
C    -2.928551  -1.426306  0.953343
C    -3.531614  -0.625755  2.922543
N    -3.956769  -0.861002  1.668996
H    -0.143737  -2.672584  2.409284
H    -0.607901  -2.859984  0.740049
H    -3.043578  -1.728662  -0.080765
H    -4.163195  -0.190698  3.689956
H    -4.891967  -0.669462  1.316899
O    1.554614  1.027108  1.768647
H    1.657028  1.125248  0.800883
Sr    -0.710405  -0.774424  4.967190
