21
Energy: -102126.588335 eV PBE+vdW (tier 2 basis)
N    0.972542  0.287122  0.441540
C    0.468228  -0.015189  1.840707
C    1.670733  -0.537755  2.627942
O    1.503194  -0.794835  3.851667
H    1.922732  -0.156013  0.405749
H    1.070205  1.295810  0.268353
H    0.071197  0.907154  2.279345
C    -0.620206  -1.114170  1.864782
C    -0.232584  -2.480788  1.370420
N    0.756514  -3.302468  1.930027
C    -0.880499  -3.183082  0.380064
C    0.676087  -4.461904  1.272958
N    -0.294413  -4.422977  0.338308
H    -1.493188  -0.768798  1.293143
H    -0.951226  -1.168283  2.912254
H    -1.719515  -2.921711  -0.254484
H    1.287607  -5.342934  1.441635
H    -0.559805  -5.189534  -0.275358
O    2.700394  -0.887160  1.959056
H    0.376872  -0.111059  -0.295584
Sr    2.730130  -2.783425  3.526475
