21
Energy: -102126.359996 eV PBE+vdW (tier 2 basis)
N    2.237964  -2.444503  0.662015
C    1.361813  -1.303118  0.503004
C    1.992851  0.079348  0.786704
O    1.253984  1.131242  0.797487
H    2.996194  -2.436782  -0.019044
H    2.670150  -2.466761  1.586803
H    1.067219  -1.247345  -0.560298
C    0.066585  -1.477037  1.331178
C    -0.751743  -2.658865  0.913947
N    -2.141857  -2.652780  0.961587
C    -0.409691  -3.912429  0.469044
C    -2.634405  -3.834067  0.567058
N    -1.586864  -4.604110  0.263089
H    -0.536931  -0.563102  1.248994
H    0.332459  -1.584283  2.396180
H    0.569948  -4.338034  0.299454
H    -3.680534  -4.108495  0.504139
H    -1.656811  -5.563694  -0.067600
O    3.257933  0.169562  0.963516
H    -2.720470  -1.870308  1.256262
Sr    3.134207  2.491561  1.077484
