21
Energy: -102126.209201 eV PBE+vdW (tier 2 basis)
N    -0.914355  0.186907  1.099769
C    0.361440  0.281092  1.777038
C    1.403432  0.504452  0.674419
O    1.562921  -0.396896  -0.226102
H    -1.056742  -0.693463  0.608316
H    -1.713677  0.401261  1.689495
H    0.357305  1.196087  2.384265
C    0.785812  -0.936188  2.670671
C    -0.130951  -1.166493  3.819249
N    -0.002798  -0.527881  5.049518
C    -1.249788  -1.953860  3.938263
C    -0.978392  -0.908200  5.884057
N    -1.743986  -1.774178  5.215264
H    1.811700  -0.787283  3.042206
H    0.805135  -1.839303  2.045889
H    -1.710450  -2.634241  3.234034
H    -1.115094  -0.583054  6.908733
H    -2.561329  -2.238180  5.605747
O    2.052567  1.606208  0.623713
H    0.740212  0.117339  5.306665
Sr    2.828036  1.085872  -1.509209
