21
Energy: -102126.136321 eV PBE+vdW (tier 2 basis)
N    -0.516163  0.413157  0.074485
C    -0.148995  0.050567  1.436226
C    1.383246  0.163925  1.466569
O    1.897334  1.238271  1.924793
H    -0.696098  -0.380315  -0.536229
H    -1.301260  1.057562  0.032492
H    -0.488038  0.851260  2.104923
C    -0.729269  -1.273092  2.003851
C    -0.693788  -2.466631  1.107439
N    0.450794  -2.901832  0.454429
C    -1.672980  -3.372793  0.784683
C    0.197743  -4.019777  -0.233619
N    -1.091526  -4.318114  -0.035448
H    -1.780902  -1.087481  2.257973
H    -0.226557  -1.515360  2.954799
H    -2.713590  -3.425855  1.079077
H    0.896361  -4.580322  -0.842628
H    -1.564541  -5.126104  -0.434182
O    2.159073  -0.748296  0.962252
H    1.329151  -2.359266  0.490118
Sr    4.004161  0.771364  1.153261
