21
Energy: -102125.282747 eV PBE+vdW (tier 2 basis)
N    0.518941  0.060155  0.167074
C    0.232362  -0.294391  1.594407
C    1.536129  -0.200133  2.383141
O    2.437309  0.571237  1.993590
H    0.868999  -0.798051  -0.283165
H    -0.474533  0.128365  -0.228219
H    -0.387407  0.529507  1.998673
C    -0.592006  -1.586446  1.725901
C    -1.925846  -1.422233  1.046118
N    -2.089699  -0.508401  0.017644
C    -3.111281  -2.082668  1.270807
C    -3.352598  -0.615917  -0.373596
N    -3.995289  -1.556723  0.359618
H    -0.771303  -1.826987  2.787050
H    -0.022082  -2.431438  1.300541
H    -3.397184  -2.853827  1.975515
H    -3.829002  -0.046051  -1.163161
H    -4.969025  -1.827519  0.255748
O    1.726444  -0.857667  3.493927
H    0.981117  -1.452369  3.716905
Sr    2.351148  1.802304  0.027179
