21
Energy: -102126.142044 eV PBE+vdW (tier 2 basis)
N    -0.187646  0.701362  0.463658
C    0.354606  -0.263376  1.397503
C    1.133462  -1.326106  0.629430
O    1.549990  -1.058635  -0.547754
H    -0.459500  1.565220  0.931219
H    0.476915  0.934501  -0.272680
H    1.111975  0.149650  2.106315
C    -0.818101  -0.846851  2.243525
C    -0.476473  -1.342449  3.606902
N    0.464400  -2.332101  3.848520
C    -0.979561  -1.002623  4.837622
C    0.542812  -2.595340  5.157509
N    -0.335336  -1.792398  5.768295
H    -1.334395  -1.630864  1.670130
H    -1.550652  -0.039247  2.360538
H    -1.737277  -0.282070  5.118357
H    1.192508  -3.316195  5.638443
H    -0.497876  -1.774384  6.772654
O    1.401413  -2.482537  1.150861
H    1.012718  -2.749935  3.088897
Sr    2.429814  -3.151582  -0.908946
