21
Energy: -102126.408676 eV PBE+vdW (tier 2 basis)
N    0.829623  -1.379990  -0.225230
C    0.442031  -0.543768  0.947143
C    1.723034  -0.096361  1.657323
O    2.771309  -0.742178  1.543439
H    -0.015248  -1.840023  -0.579415
H    1.125603  -0.761151  -0.988615
H    -0.118807  0.346478  0.618064
C    -0.483101  -1.334417  1.909801
C    0.101743  -2.429940  2.756919
N    1.074288  -3.347952  2.350662
C    -0.326514  -2.770854  4.018049
C    1.206349  -4.216178  3.361496
N    0.376718  -3.895648  4.370888
H    -1.301632  -1.736607  1.288368
H    -0.971137  -0.616316  2.582522
H    -1.069893  -2.327382  4.669920
H    1.874500  -5.070592  3.395054
H    0.283441  -4.405719  5.246265
O    1.709404  0.957608  2.440218
H    0.863222  1.447088  2.428272
Sr    2.786275  -2.922273  0.589300
