29
Energy: -19618.5555232 eV PBE+vdW (tier 2 basis)
C    -0.156405  0.320833  0.830947
C    -0.566851  0.413091  2.283522
O    0.031334  -0.171528  3.182015
H    -0.984877  0.504194  0.135129
H    0.277719  -0.664904  0.638147
H    0.619703  1.078596  0.646705
N    -1.660967  1.224025  2.532235
C    -1.921830  1.712250  3.879573
C    -3.369386  1.502361  4.360311
O    -3.794030  2.093927  5.350255
H    -1.940237  1.834384  1.768632
H    -1.299164  1.075285  4.528728
C    -1.501130  3.193744  4.057110
C    -0.164287  3.497945  3.472770
N    1.002828  2.839401  3.814373
C    0.221234  4.384995  2.487808
C    2.007213  3.339527  3.032051
N    1.569647  4.285335  2.223011
H    -1.556483  3.428205  5.129119
H    -2.239945  3.846656  3.569840
H    1.074316  2.035892  4.429504
H    -0.406885  5.102150  1.967564
H    3.028737  2.979189  3.099702
N    -4.096097  0.613435  3.630423
C    -5.442985  0.219367  3.992800
H    -3.619926  0.155363  2.860761
H    -6.133973  0.358114  3.150385
H    -5.761154  0.854606  4.826449
H    -5.481119  -0.831436  4.314135
