29
Energy: -19618.2209563 eV PBE+vdW (tier 2 basis)
C    -2.144042  -0.148162  0.581687
C    -0.817170  0.140631  1.256537
O    0.243580  -0.296158  0.821337
H    -1.927082  -0.554183  -0.409899
H    -2.778950  0.741317  0.475652
H    -2.704938  -0.901786  1.150599
N    -0.819934  0.933566  2.386306
C    -1.940827  1.453172  3.154656
C    -1.593841  2.896847  3.583225
O    -1.211436  3.154934  4.722544
H    0.102900  1.023188  2.807081
H    -2.816624  1.472760  2.491851
C    -2.274057  0.593260  4.398876
C    -2.764340  -0.766085  4.042478
N    -4.094619  -1.038930  3.768921
C    -2.115957  -1.958983  3.794644
C    -4.183809  -2.351796  3.389034
N    -3.000933  -2.934670  3.390804
H    -3.011779  1.134279  5.010421
H    -1.373062  0.519834  5.020555
H    -4.867518  -0.393774  3.883517
H    -1.052305  -2.157911  3.877412
H    -5.128805  -2.823372  3.138663
N    -1.707722  3.865814  2.627597
C    -2.046535  3.708892  1.222344
H    -1.395085  4.778266  2.944525
H    -2.104371  4.703789  0.769018
H    -3.029262  3.233647  1.091532
H    -1.296185  3.121535  0.674021
