29
Energy: -19617.7744348 eV PBE+vdW (tier 2 basis)
C    0.323244  -0.112516  0.464873
C    -0.071196  0.024434  1.922585
O    0.764648  0.050225  2.820060
H    -0.125097  0.667906  -0.163245
H    0.018284  -1.093494  0.073759
H    1.411827  -0.036963  0.404175
N    -1.410633  0.116158  2.225579
C    -2.591729  0.054473  1.369571
C    -2.636470  -1.293567  0.590455
O    -2.607623  -2.330242  1.241547
H    -1.576293  0.105819  3.226900
H    -3.426651  -0.091602  2.071519
C    -2.887255  1.394032  0.651217
C    -4.325693  1.607692  0.299267
N    -5.149723  0.666812  -0.297870
C    -5.141795  2.706684  0.481471
C    -6.387443  1.231592  -0.441646
N    -6.414331  2.467963  0.016449
H    -2.225124  1.536676  -0.214855
H    -2.611176  2.186905  1.358687
H    -4.877250  -0.279714  -0.551140
H    -4.870284  3.658654  0.927647
H    -7.223316  0.694221  -0.878202
N    -2.841582  -1.365683  -0.780210
C    -2.442722  -0.472818  -1.873397
H    -2.873135  -2.350117  -1.039401
H    -3.015045  0.460632  -1.880052
H    -1.370379  -0.236592  -1.860263
H    -2.661461  -0.992820  -2.812250
