29
Energy: -19618.354755 eV PBE+vdW (tier 2 basis)
C    -0.389919  0.527675  -0.153971
C    -0.272979  -0.071743  1.231779
O    0.805523  -0.443526  1.697166
H    0.082187  1.519136  -0.142262
H    -1.424702  0.636147  -0.501388
H    0.168258  -0.096832  -0.860338
N    -1.440792  -0.143402  1.939096
C    -1.503041  -0.626299  3.310357
C    -2.239959  -1.982495  3.317882
O    -3.468706  -2.025051  3.228191
H    -2.310028  0.130432  1.494949
H    -0.459690  -0.736903  3.627376
C    -2.233947  0.353093  4.238175
C    -1.593397  1.700915  4.312322
N    -2.283281  2.811410  4.765225
C    -0.327157  2.176689  4.033898
C    -1.424499  3.877708  4.743377
N    -0.233484  3.526353  4.302975
H    -2.280961  -0.109895  5.238736
H    -3.280830  0.428794  3.903041
H    -3.251246  2.824045  5.064408
H    0.520720  1.622303  3.643798
H    -1.724275  4.873273  5.054898
N    -1.481904  -3.109564  3.382462
C    -0.033043  -3.236196  3.492860
H    -2.035098  -3.961709  3.376765
H    0.261484  -4.211000  3.087604
H    0.309655  -3.183065  4.537967
H    0.478588  -2.462784  2.907416
