29
Energy: -19618.052019 eV PBE+vdW (tier 2 basis)
C    0.359143  -0.199964  0.280536
C    0.009808  -0.390101  1.741016
O    0.827630  -0.832334  2.545390
H    0.266291  0.848858  -0.027112
H    -0.284338  -0.812350  -0.364762
H    1.398545  -0.513693  0.154740
N    -1.260372  -0.087640  2.190413
C    -2.432412  0.543496  1.591240
C    -2.622484  0.169518  0.101899
O    -2.974084  -0.965538  -0.204098
H    -1.350727  -0.316687  3.177194
H    -3.297824  0.043635  2.053576
C    -2.567122  2.044057  1.985343
C    -1.505997  2.983464  1.507086
N    -1.781312  4.041235  0.648657
C    -0.143970  3.072925  1.724126
C    -0.605913  4.701574  0.405709
N    0.402425  4.132846  1.035036
H    -2.600689  2.069680  3.085437
H    -3.555196  2.395349  1.649644
H    -2.704540  4.322077  0.336893
H    0.469686  2.427320  2.343707
H    -0.551500  5.579666  -0.229825
N    -2.437821  1.161246  -0.814072
C    -2.503308  0.882230  -2.238117
H    -1.955566  2.002426  -0.514318
H    -1.585952  0.393836  -2.602969
H    -2.650374  1.819952  -2.785339
H    -3.344267  0.208884  -2.433951
