29
Energy: -19618.5395027 eV PBE+vdW (tier 2 basis)
C    -1.692191  0.960958  0.196616
C    -1.763882  0.721293  1.688342
O    -1.775844  -0.419099  2.169803
H    -1.833786  2.010778  -0.086773
H    -2.449118  0.344363  -0.301467
H    -0.708542  0.630153  -0.162295
N    -1.803746  1.834225  2.471402
C    -1.688333  1.778934  3.929144
C    -3.074777  1.525417  4.589234
O    -3.662623  2.393644  5.233197
H    -1.744797  2.744240  2.028823
H    -1.043867  0.915862  4.160292
C    -1.072430  3.062347  4.479085
C    0.296604  3.356762  3.955013
N    0.917241  4.571248  4.187143
C    1.225235  2.636211  3.229314
C    2.159014  4.527027  3.611666
N    2.374574  3.369115  3.021348
H    -1.058311  2.971852  5.576232
H    -1.762775  3.898495  4.277714
H    0.522608  5.345634  4.708201
H    1.128878  1.626560  2.843471
H    2.850767  5.362209  3.654519
N    -3.534705  0.267835  4.375547
C    -4.842292  -0.172113  4.819590
H    -2.983440  -0.317829  3.740305
H    -5.541419  -0.277176  3.976368
H    -5.238674  0.577425  5.512540
H    -4.768368  -1.138372  5.335626
