29
Energy: -19618.302269 eV PBE+vdW (tier 2 basis)
C    -0.182117  0.498024  0.395404
C    -0.052177  -0.247706  1.707281
O    1.036811  -0.441821  2.241054
H    -0.303539  -0.216150  -0.431665
H    -1.035657  1.183981  0.359124
H    0.746405  1.052813  0.236843
N    -1.192758  -0.757342  2.294407
C    -2.601219  -0.629925  1.924959
C    -2.859971  -1.005932  0.446779
O    -3.393713  -0.223748  -0.346677
H    -0.989251  -1.221283  3.175064
H    -3.130234  -1.387077  2.526391
C    -3.212354  0.742180  2.300979
C    -4.701166  0.758465  2.390197
N    -5.531725  0.692636  1.289787
C    -5.560441  0.837526  3.469532
C    -6.818899  0.728124  1.740762
N    -6.873717  0.819419  3.058626
H    -2.810039  1.006977  3.287489
H    -2.854816  1.504286  1.593389
H    -5.182414  0.569728  0.340747
H    -5.295721  0.921897  4.519493
H    -7.672523  0.686238  1.071736
N    -2.483006  -2.250353  0.048708
C    -1.877190  -3.321080  0.825903
H    -2.667420  -2.424026  -0.934667
H    -2.032003  -4.264212  0.290666
H    -2.355474  -3.418378  1.808989
H    -0.798973  -3.172662  0.976267
