29
Energy: -19618.3179331 eV PBE+vdW (tier 2 basis)
C    0.008578  0.055119  0.641499
C    -0.821346  1.322875  0.645496
O    -0.784381  2.135602  -0.275586
H    -0.594507  -0.839968  0.844714
H    0.466703  -0.037814  -0.346471
H    0.804270  0.098980  1.397753
N    -1.651082  1.548310  1.724665
C    -1.657800  0.887565  3.025697
C    -3.128082  0.803228  3.487720
O    -3.620308  1.666333  4.211734
H    -2.159209  2.428905  1.660875
H    -1.245864  -0.120007  2.889237
C    -0.805785  1.626629  4.085230
C    0.636654  1.709370  3.723880
N    1.153428  2.607244  2.806005
C    1.725122  0.947248  4.101337
C    2.488797  2.345247  2.670040
N    2.867634  1.346139  3.445128
H    -0.900187  1.088237  5.038442
H    -1.248673  2.618621  4.255405
H    0.624616  3.297392  2.284476
H    1.740227  0.136195  4.823245
H    3.127267  2.913479  2.001476
N    -3.858213  -0.254011  3.027903
C    -3.456590  -1.264902  2.062452
H    -4.835525  -0.215702  3.300769
H    -2.587222  -1.840096  2.411057
H    -4.284631  -1.970140  1.938000
H    -3.224399  -0.831727  1.078394
