29
Energy: -19618.0610743 eV PBE+vdW (tier 2 basis)
C    -0.543185  0.264222  0.192352
C    -0.406642  0.144530  1.698969
O    0.631838  0.449712  2.277467
H    -1.449356  0.801903  -0.116510
H    0.333529  0.802835  -0.176461
H    -0.568935  -0.733033  -0.267894
N    -1.471635  -0.351632  2.417070
C    -2.829683  -0.658959  1.999242
C    -2.849206  -1.647248  0.801915
O    -2.246204  -2.711677  0.870856
H    -1.277557  -0.390673  3.412591
H    -3.249278  -1.267508  2.815204
C    -3.719006  0.613032  1.877280
C    -3.818019  1.368761  3.159023
N    -4.745314  1.068836  4.143560
C    -3.061656  2.387393  3.700432
C    -4.515569  1.908840  5.200299
N    -3.502318  2.717526  4.962527
H    -4.728884  0.322723  1.543270
H    -3.303585  1.285948  1.112628
H    -5.479633  0.373455  4.079976
H    -2.215687  2.891737  3.244121
H    -5.118308  1.886665  6.102631
N    -3.600200  -1.283489  -0.277599
C    -3.685953  -2.109955  -1.468287
H    -3.990935  -0.350668  -0.310791
H    -4.713716  -2.121107  -1.851531
H    -3.386686  -3.126598  -1.194137
H    -3.012349  -1.752135  -2.261566
