29
Energy: -19618.3555507 eV PBE+vdW (tier 2 basis)
C    0.467240  0.204020  1.928525
C    -0.517405  1.337480  2.152216
O    -0.154262  2.457665  2.504955
H    0.434896  -0.150171  0.887797
H    0.268441  -0.656679  2.580677
H    1.468788  0.587890  2.138039
N    -1.850291  1.076570  1.940112
C    -2.487866  -0.177751  1.609100
C    -3.621851  0.118255  0.613599
O    -4.242997  1.178054  0.673655
H    -2.471679  1.884688  1.968101
H    -1.743792  -0.854884  1.173214
C    -3.116852  -0.872514  2.862043
C    -2.121353  -1.226625  3.908880
N    -1.541395  -0.303571  4.760408
C    -1.516543  -2.423629  4.239972
C    -0.630953  -0.966374  5.535154
N    -0.595285  -2.254701  5.247893
H    -3.631176  -1.791128  2.545376
H    -3.893575  -0.199132  3.256818
H    -1.708969  0.696651  4.751087
H    -1.709729  -3.400777  3.807152
H    -0.032108  -0.463131  6.287216
N    -3.942685  -0.860953  -0.277989
C    -3.245375  -2.115525  -0.517164
H    -4.720243  -0.619532  -0.884537
H    -3.785240  -2.665224  -1.294802
H    -3.217984  -2.752954  0.377808
H    -2.215379  -1.960026  -0.870868
