29
Energy: -19617.7537523 eV PBE+vdW (tier 2 basis)
C    -0.362940  0.336520  0.160628
C    0.177397  0.605320  1.552574
O    1.276528  1.138298  1.698238
H    0.410568  0.647316  -0.546373
H    -1.274084  0.916485  -0.033660
H    -0.594052  -0.721747  -0.008504
N    -0.562295  0.299400  2.677243
C    -1.794016  -0.433399  3.007387
C    -1.452979  -1.686831  3.860393
O    -1.823682  -1.727488  5.032379
H    -0.045123  0.585342  3.506759
H    -2.328610  0.194759  3.734623
C    -2.766532  -0.678424  1.847012
C    -4.092666  -1.222667  2.281166
N    -5.035717  -1.603402  1.340484
C    -4.712413  -1.440676  3.495834
C    -6.152605  -2.019783  2.013703
N    -5.987568  -1.935489  3.317022
H    -2.920334  0.287331  1.337870
H    -2.329296  -1.352592  1.096583
H    -4.921876  -1.564653  0.334481
H    -4.300496  -1.289539  4.487440
H    -7.042765  -2.371252  1.501574
N    -0.726909  -2.711812  3.323436
C    -0.062608  -2.826356  2.036122
H    -0.543665  -3.439570  4.007320
H    0.409514  -3.813009  1.985604
H    0.720523  -2.068104  1.898203
H    -0.769507  -2.764585  1.197545
