29
Energy: -19618.0685609 eV PBE+vdW (tier 2 basis)
C    0.502895  0.261965  0.699172
C    -0.070940  -0.073448  2.057541
O    0.646289  -0.326050  3.022305
H    0.033179  -0.334423  -0.091356
H    0.358372  1.327559  0.472757
H    1.576473  0.059131  0.736574
N    -1.444333  -0.052699  2.247892
C    -2.588232  0.032158  1.342800
C    -2.785831  -1.270059  0.527845
O    -1.899681  -1.691178  -0.213585
H    -1.667843  -0.339454  3.196821
H    -3.447950  0.179474  2.009080
C    -2.569696  1.241717  0.371278
C    -3.916572  1.495124  -0.215991
N    -4.892427  2.242618  0.422115
C    -4.542126  1.015734  -1.348899
C    -6.027111  2.189428  -0.342465
N    -5.848378  1.448575  -1.419053
H    -1.859460  1.047914  -0.440543
H    -2.204541  2.120605  0.923579
H    -4.767479  2.775022  1.275385
H    -4.112112  0.374985  -2.112249
H    -6.937422  2.714955  -0.071934
N    -3.966985  -1.936850  0.671761
C    -5.186050  -1.507305  1.342217
H    -4.031879  -2.747137  0.061770
H    -5.890678  -2.345791  1.336853
H    -5.666967  -0.655841  0.838799
H    -5.000467  -1.249195  2.393345
