29
Energy: -19618.2789926 eV PBE+vdW (tier 2 basis)
C    -1.796841  -0.642549  0.662374
C    -0.947263  -0.583069  1.913881
O    -0.259485  -1.527533  2.296786
H    -2.868310  -0.600638  0.904685
H    -1.585847  -1.590811  0.161814
H    -1.571705  0.188331  -0.019562
N    -0.964610  0.586921  2.643236
C    -1.843878  1.736999  2.494433
C    -0.985575  3.016865  2.382273
O    -0.599297  3.413575  1.288273
H    -0.333478  0.569496  3.441451
H    -2.333596  1.656519  1.518651
C    -2.950452  1.757128  3.582957
C    -3.903224  0.617067  3.458130
N    -3.593501  -0.693600  3.779275
C    -5.192946  0.553813  2.969232
C    -4.678895  -1.464462  3.466419
N    -5.666416  -0.737971  2.978141
H    -3.521980  2.691986  3.494100
H    -2.491412  1.758132  4.588130
H    -2.695490  -1.032528  4.106642
H    -5.803810  1.379687  2.617345
H    -4.690513  -2.538833  3.618815
N    -0.655300  3.618005  3.563672
C    0.182495  4.802540  3.631266
H    -1.074453  3.273915  4.419103
H    1.020417  4.648581  4.323883
H    -0.390650  5.683373  3.953766
H    0.574859  4.986133  2.625857
