29
Energy: -19618.0402978 eV PBE+vdW (tier 2 basis)
C    -0.492654  1.116738  -0.120362
C    -0.400254  0.324727  1.172191
O    0.428426  0.586175  2.036471
H    0.516486  1.409607  -0.426930
H    -1.066362  2.032960  0.076870
H    -0.978090  0.570334  -0.939144
N    -1.311943  -0.704104  1.265532
C    -1.619243  -1.465796  2.460476
C    -2.515548  -0.641308  3.422897
O    -2.624916  0.574103  3.328376
H    -2.003703  -0.747317  0.527923
H    -2.204098  -2.334232  2.115941
C    -0.349010  -2.009530  3.179111
C    0.475312  -2.902351  2.318623
N    0.174911  -4.237196  2.095783
C    1.591857  -2.670987  1.542928
C    1.109053  -4.736152  1.226962
N    1.978620  -3.811200  0.872101
H    -0.661522  -2.537437  4.091644
H    0.256285  -1.151215  3.486882
H    -0.570349  -4.761864  2.537829
H    2.127653  -1.733453  1.438164
H    1.106371  -5.771452  0.900586
N    -3.204524  -1.338938  4.383960
C    -3.270622  -2.767907  4.628063
H    -3.733727  -0.730571  5.001306
H    -4.229028  -3.003923  5.105481
H    -2.464822  -3.131213  5.286223
H    -3.230942  -3.333160  3.688031
