29
Energy: -19618.5459244 eV PBE+vdW (tier 2 basis)
C    -0.746194  -1.327966  1.163636
C    -0.585894  0.021219  1.830502
O    0.210589  0.870037  1.407258
H    -1.058849  -1.170173  0.123671
H    -1.474226  -1.980141  1.660651
H    0.229058  -1.829436  1.138235
N    -1.373503  0.242012  2.917287
C    -1.383768  1.489772  3.671326
C    -0.227488  1.559402  4.713280
O    -0.435001  1.641722  5.923125
H    -1.908790  -0.524826  3.316617
H    -1.202162  2.294653  2.942811
C    -2.759322  1.707403  4.335278
C    -3.386726  0.467552  4.892647
N    -4.570825  -0.050697  4.392228
C    -3.018912  -0.423832  5.883490
C    -4.861285  -1.189691  5.092534
N    -3.936981  -1.445613  5.997924
H    -3.435946  2.149394  3.590122
H    -2.621213  2.446776  5.135209
H    -5.131331  0.364639  3.657187
H    -2.141001  -0.361740  6.517103
H    -5.750564  -1.781639  4.900374
N    1.000017  1.543305  4.136211
C    2.228896  1.561270  4.904507
H    1.032783  1.466260  3.115247
H    1.968224  1.677366  5.961684
H    2.868617  2.400475  4.598689
H    2.793233  0.625998  4.777554
