29
Energy: -19618.5634416 eV PBE+vdW (tier 2 basis)
C    -0.587217  1.218082  1.005253
C    -0.142617  0.267756  2.102576
O    0.883768  0.445933  2.749556
H    0.087560  2.077713  1.013440
H    -1.620486  1.563824  1.146523
H    -0.529183  0.736830  0.018221
N    -0.961141  -0.811150  2.369284
C    -2.136470  -1.253625  1.640934
C    -3.474957  -0.930257  2.352175
O    -4.532337  -1.435116  1.961814
H    -0.583698  -1.459019  3.061725
H    -2.176111  -0.719949  0.681052
C    -2.061144  -2.770103  1.330317
C    -2.081804  -3.623294  2.552849
N    -3.239463  -3.871429  3.267267
C    -1.091197  -4.274506  3.262750
C    -2.902881  -4.639461  4.345555
N    -1.609579  -4.904190  4.372570
H    -1.134501  -2.958434  0.773144
H    -2.902498  -3.018458  0.669732
H    -4.151097  -3.489870  3.026749
H    -0.035086  -4.335959  3.016654
H    -3.636128  -4.979684  5.069925
N    -3.381548  -0.070522  3.392287
C    -4.523437  0.342645  4.183982
H    -2.445585  0.216539  3.661737
H    -5.426013  -0.044144  3.699168
H    -4.583693  1.437459  4.238034
H    -4.466154  -0.059700  5.205326
