29
Energy: -19618.3720663 eV PBE+vdW (tier 2 basis)
C    -0.453025  -0.783389  0.045420
C    -0.476507  -0.799406  1.564645
O    0.476909  -1.205023  2.224639
H    0.525945  -1.143597  -0.280633
H    -0.611999  0.230482  -0.349209
H    -1.230120  -1.430089  -0.384807
N    -1.612128  -0.338915  2.184078
C    -2.822989  0.190389  1.595031
C    -3.466163  1.094302  2.673385
O    -3.078821  1.073201  3.839155
H    -1.554639  -0.193557  3.195382
H    -2.585188  0.803814  0.709915
C    -3.820941  -0.928055  1.159880
C    -4.403660  -1.699142  2.292437
N    -3.665226  -2.515232  3.129256
C    -5.690602  -1.776044  2.784776
C    -4.518698  -3.025675  4.067291
N    -5.754924  -2.602542  3.882709
H    -3.295272  -1.591480  0.455585
H    -4.648893  -0.479425  0.592602
H    -2.660109  -2.643992  3.088249
H    -6.574648  -1.280474  2.394577
H    -4.184431  -3.694930  4.853392
N    -4.499130  1.863944  2.249717
C    -5.268065  2.691225  3.165676
H    -4.739723  1.870892  1.266701
H    -4.763987  3.645710  3.375539
H    -5.396928  2.155881  4.112948
H    -6.251408  2.894109  2.728269
