29
Energy: -19618.5190815 eV PBE+vdW (tier 2 basis)
C    0.072378  -0.649261  -0.045997
C    0.110621  -0.340627  1.437492
O    1.152665  -0.395105  2.089832
H    -0.919772  -0.531976  -0.498594
H    0.416643  -1.679534  -0.199969
H    0.780578  0.012304  -0.559611
N    -1.090629  0.012527  1.993237
C    -1.253057  0.316407  3.408093
C    -1.962836  -0.870489  4.091557
O    -3.190973  -1.005737  3.993920
H    -1.931910  -0.052031  1.430229
H    -0.241595  0.455322  3.805264
C    -2.060089  1.617366  3.598252
C    -2.300689  1.974280  5.026765
N    -3.239051  1.331263  5.812284
C    -1.730743  2.911101  5.865754
C    -3.188661  1.889842  7.056931
N    -2.287589  2.854036  7.123554
H    -3.018863  1.517633  3.065398
H    -1.500298  2.429227  3.116033
H    -3.791899  0.536867  5.497465
H    -0.954688  3.629974  5.620754
H    -3.828819  1.561113  7.869449
N    -1.200530  -1.762125  4.767686
C    0.232513  -1.720696  5.043514
H    -1.743523  -2.508404  5.193476
H    0.571439  -2.740487  5.257187
H    0.462087  -1.089839  5.915363
H    0.790218  -1.355490  4.173187
