29
Energy: -19618.3046866 eV PBE+vdW (tier 2 basis)
C    0.916760  -1.337966  0.084572
C    0.681108  -0.054649  0.856254
O    1.500291  0.857399  0.846970
H    0.332434  -2.197973  0.428162
H    0.678236  -1.156390  -0.972823
H    1.984773  -1.573080  0.140906
N    -0.480091  0.071871  1.603640
C    -1.695025  -0.740720  1.564165
C    -1.539335  -2.151023  2.190803
O    -2.320622  -3.057952  1.911343
H    -0.587049  1.021416  1.950891
H    -2.395267  -0.227861  2.243409
C    -2.387514  -0.810013  0.181443
C    -2.886440  0.518655  -0.274416
N    -4.193925  0.933711  -0.087594
C    -2.264564  1.606370  -0.854697
C    -4.299354  2.213061  -0.562787
N    -3.146821  2.649896  -1.031221
H    -3.203451  -1.540257  0.263379
H    -1.691506  -1.221583  -0.560185
H    -4.944237  0.367861  0.291789
H    -1.223553  1.690109  -1.152044
H    -5.233457  2.765499  -0.546495
N    -0.536740  -2.258935  3.100755
C    -0.264917  -3.479845  3.832933
H    0.060951  -1.448079  3.223314
H    -0.330061  -3.313037  4.916841
H    0.733661  -3.872528  3.594891
H    -1.017674  -4.219207  3.539586
