32
Energy: -103892.416096 eV PBE+vdW (tier 2 basis)
C    0.479207  0.921165  0.589588
C    -0.058728  0.021223  1.650895
O    0.739731  -0.432885  2.565906
H    0.961323  1.794951  1.047817
H    -0.295465  1.260540  -0.104673
H    1.253283  0.382277  0.024770
N    -1.329941  -0.300395  1.641583
C    -2.065864  -1.271481  2.450912
C    -3.291868  -1.585826  1.515095
O    -3.516152  -0.802615  0.588559
H    -1.968994  0.007867  0.869889
H    -1.453497  -2.177006  2.581481
C    -2.571681  -0.708514  3.797445
C    -1.558212  -0.477857  4.939982
C    -2.236068  0.230827  6.120884
C    -0.912335  -1.795166  5.414575
H    -3.347049  -1.391235  4.179224
H    -3.089121  0.239227  3.590396
H    -0.788660  0.229636  4.546711
H    -1.536199  0.416886  6.947138
H    -3.058436  -0.379161  6.519029
H    -2.654852  1.196580  5.813530
H    -0.223740  -1.655784  6.274414
H    -0.431373  -2.389819  4.610148
H    -1.676549  -2.473324  5.820415
N    -4.020371  -2.670030  1.809313
C    -5.209294  -3.068234  1.052147
H    -3.718866  -3.276844  2.564284
H    -6.068494  -3.163770  1.725987
H    -5.034772  -4.025529  0.546538
H    -5.416008  -2.297522  0.305329
Sr    1.620564  -0.767833  4.522018
