32
Energy: -103893.50819 eV PBE+vdW (tier 2 basis)
C    -0.860199  -0.021808  -0.184557
C    -0.593733  -0.219721  1.272058
O    0.569988  -0.520665  1.675197
H    -1.891012  0.271937  -0.407111
H    -0.634645  -0.959774  -0.711775
H    -0.173497  0.738380  -0.579648
N    -1.616585  -0.077765  2.128843
C    -1.636132  -0.348806  3.587407
C    -0.822879  0.732979  4.324803
O    0.439577  0.629657  4.423152
H    -2.514436  0.151072  1.711256
H    -2.690509  -0.231182  3.865337
C    -1.236881  -1.792620  3.954388
C    -1.879506  -2.339751  5.244598
C    -1.520587  -3.821853  5.400512
C    -1.502053  -1.544690  6.499432
H    -0.138725  -1.892390  4.053407
H    -1.522196  -2.435884  3.110329
H    -2.973296  -2.271891  5.106822
H    -2.029233  -4.253265  6.270957
H    -0.439219  -3.957398  5.557861
H    -1.813279  -4.410442  4.521053
H    -1.945034  -2.005539  7.390527
H    -1.857150  -0.504322  6.480713
H    -0.411762  -1.527699  6.653366
N    -1.443397  1.783746  4.839998
C    -2.880177  2.081817  4.858387
H    -0.829020  2.446770  5.312864
H    -3.013077  3.060243  5.327864
H    -3.432658  1.341073  5.450377
H    -3.289334  2.137072  3.842879
Sr    2.121312  -0.472677  3.328013
