32
Energy: -103892.056512 eV PBE+vdW (tier 2 basis)
C    -0.038337  -0.417352  -0.040573
C    -0.109085  0.050100  1.372498
O    1.013819  0.162476  2.047579
H    0.707096  0.175027  -0.586839
H    -0.998657  -0.350316  -0.558564
H    0.295086  -1.465002  -0.061628
N    -1.220014  0.353219  1.977603
C    -2.619738  0.338627  1.530142
C    -3.264545  1.288637  2.587088
O    -2.648928  1.466004  3.652668
H    -1.245378  0.724735  2.965246
H    -2.699423  0.773603  0.523346
C    -3.173202  -1.106096  1.543996
C    -4.651792  -1.274107  1.110624
C    -4.806142  -2.538897  0.254816
C    -5.605681  -1.315964  2.312184
H    -3.027139  -1.526002  2.551088
H    -2.531800  -1.690327  0.866627
H    -4.925657  -0.417762  0.465803
H    -4.194032  -2.492881  -0.656517
H    -5.850279  -2.676365  -0.052551
H    -4.510093  -3.434066  0.820740
H    -6.650918  -1.336800  1.979156
H    -5.488123  -0.459340  2.987778
H    -5.433212  -2.226346  2.903857
N    -4.426946  1.860787  2.267765
C    -5.192336  2.705780  3.181751
H    -4.852971  1.617157  1.378927
H    -5.555798  3.589441  2.646298
H    -4.539638  3.015263  4.001984
H    -6.049125  2.154589  3.591616
Sr    2.812121  0.380387  3.182013
