32
Energy: -103893.459095 eV PBE+vdW (tier 2 basis)
C    -1.661714  -0.634473  0.171913
C    -1.273441  0.095516  1.418854
O    -0.057511  0.185882  1.746286
H    -1.169383  -0.156220  -0.686023
H    -2.741328  -0.664071  -0.006726
H    -1.277179  -1.661905  0.226592
N    -2.260452  0.630663  2.158544
C    -2.256795  1.426996  3.411629
C    -1.349572  2.666029  3.330350
O    -0.088022  2.569793  3.411996
H    -3.192723  0.468707  1.787807
H    -3.285052  1.804255  3.438299
C    -2.134429  0.650661  4.757485
C    -0.801550  0.172902  5.378078
C    -1.009749  -0.058694  6.885676
C    -0.221885  -1.107517  4.749040
H    -2.816264  -0.210838  4.680101
H    -2.601973  1.321107  5.494751
H    -0.079012  1.016896  5.317641
H    -1.313809  0.863304  7.395942
H    -0.090445  -0.420408  7.363308
H    -1.788942  -0.814567  7.055649
H    -0.154820  -1.103055  3.647989
H    -0.870590  -1.965569  4.974497
H    0.755773  -1.370893  5.188462
N    -1.911133  3.863992  3.218502
C    -3.331242  4.219555  3.106295
H    -1.243527  4.635563  3.214300
H    -3.394043  5.303484  2.976478
H    -3.883223  3.955526  4.016927
H    -3.792255  3.748007  2.230361
Sr    1.495291  0.903375  3.253994
