32
Energy: -103892.913235 eV PBE+vdW (tier 2 basis)
C    0.239218  0.341032  0.166524
C    0.018869  0.127957  1.627261
O    0.999395  -0.002972  2.426129
H    0.407432  1.409869  -0.042537
H    -0.602324  -0.002752  -0.443420
H    1.152587  -0.188884  -0.128122
N    -1.236378  0.100586  2.129858
C    -2.283976  1.050556  1.747056
C    -1.747095  2.474478  2.056409
O    -0.769414  2.632272  2.863313
H    -1.296370  -0.219406  3.097509
H    -2.464462  0.977919  0.664096
C    -3.583079  0.663821  2.491992
C    -4.844757  1.517499  2.217412
C    -6.086427  0.614417  2.187065
C    -5.025085  2.642246  3.247064
H    -3.382493  0.650683  3.577087
H    -3.772304  -0.378158  2.195288
H    -4.755633  1.960968  1.206211
H    -6.019198  -0.143151  1.395408
H    -6.992561  1.206070  2.008612
H    -6.215860  0.094505  3.147001
H    -4.136912  3.278797  3.366389
H    -5.255948  2.218523  4.234844
H    -5.863556  3.293951  2.971937
N    -2.323353  3.488385  1.439665
C    -2.041282  4.907774  1.649382
H    -3.110885  3.264621  0.832502
H    -1.929286  5.401877  0.677894
H    -1.121688  5.016164  2.227637
H    -2.872486  5.374163  2.194370
Sr    1.150907  1.814851  3.858385
