32
Energy: -103893.576185 eV PBE+vdW (tier 2 basis)
C    2.242064  -0.344313  0.897376
C    1.298629  0.541049  1.643235
O    1.177827  1.767943  1.326004
H    1.918445  -0.391272  -0.152488
H    2.291141  -1.361398  1.299368
H    3.246903  0.097173  0.901345
N    0.578381  0.013051  2.637734
C    -0.526215  0.673988  3.358371
C    0.030262  1.636973  4.428632
O    0.455848  2.781528  4.061883
H    0.724399  -0.971655  2.853249
H    -1.003154  1.346029  2.627268
C    -1.613595  -0.342802  3.772020
C    -1.369871  -1.468724  4.809750
C    -2.616171  -2.367635  4.827430
C    -0.102274  -2.306362  4.586387
H    -1.932493  -0.820129  2.831252
H    -2.481014  0.248133  4.101828
H    -1.314456  -1.033604  5.827503
H    -2.535756  -3.125209  5.616147
H    -2.731940  -2.893768  3.869133
H    -3.532309  -1.791219  5.009563
H    0.832576  -1.742998  4.738082
H    -0.095646  -2.764174  3.583119
H    -0.067251  -3.140533  5.297999
N    0.052372  1.273772  5.694642
C    0.545264  2.108365  6.792526
H    -0.323041  0.352579  5.918769
H    0.144480  3.123468  6.701673
H    1.641762  2.149635  6.781578
H    0.212826  1.669428  7.736756
Sr    1.064007  3.875684  2.145865
