32
Energy: -103893.42776 eV PBE+vdW (tier 2 basis)
C    0.392104  -0.177088  0.292024
C    0.171197  -0.208514  1.767228
O    1.154535  -0.269525  2.570917
H    0.990201  0.711577  0.044727
H    -0.537198  -0.153122  -0.286104
H    0.983235  -1.052447  -0.008142
N    -1.082950  -0.159707  2.237401
C    -1.432534  -0.022487  3.663390
C    -1.165186  -1.360478  4.390505
O    -0.073692  -1.459134  5.049640
H    -1.836704  -0.063809  1.560372
H    -0.689057  0.661422  4.101886
C    -2.805494  0.652932  3.823104
C    -3.089804  1.249461  5.217560
C    -4.385878  2.067891  5.153712
C    -3.159251  0.202883  6.336494
H    -3.622891  -0.021299  3.533309
H    -2.816421  1.479556  3.094696
H    -2.263842  1.946531  5.448293
H    -4.577996  2.561246  6.114058
H    -5.251877  1.426574  4.934593
H    -4.339603  2.848539  4.383021
H    -3.934188  -0.551603  6.135144
H    -3.423977  0.682803  7.286773
H    -2.205799  -0.317330  6.509062
N    -1.971855  -2.406738  4.324872
C    -3.243009  -2.594724  3.620942
H    -1.653322  -3.199143  4.883604
H    -4.086473  -2.258099  4.236028
H    -3.359412  -3.664626  3.421806
H    -3.247215  -2.068962  2.662692
Sr    2.078920  -0.853949  4.568256
