32
Energy: -103892.923502 eV PBE+vdW (tier 2 basis)
C    0.094406  -0.248587  0.478864
C    -0.007086  0.420192  1.809830
O    0.832364  0.150293  2.729091
H    -0.039825  0.465130  -0.341914
H    -0.681708  -1.022602  0.370639
H    1.072854  -0.730813  0.396451
N    -0.986877  1.313146  2.082316
C    -2.409779  1.145695  1.746933
C    -2.899623  -0.159336  2.435539
O    -2.152601  -0.779992  3.264904
H    -0.822787  1.821363  2.950414
H    -2.913136  1.969798  2.276631
C    -2.783156  1.279663  0.257363
C    -2.237548  2.551753  -0.423230
C    -2.627864  2.533361  -1.906178
C    -2.715622  3.833852  0.267278
H    -3.883944  1.319720  0.194063
H    -2.479518  0.384224  -0.302383
H    -1.135523  2.523429  -0.361023
H    -2.195092  3.394873  -2.428638
H    -3.718766  2.586792  -2.032280
H    -2.273826  1.625564  -2.414057
H    -2.348985  4.716171  -0.271077
H    -2.353149  3.930318  1.301875
H    -3.813975  3.895602  0.280790
N    -4.118545  -0.585945  2.167757
C    -4.752787  -1.752929  2.788314
H    -4.657739  -0.064203  1.481072
H    -5.781182  -1.819178  2.424559
H    -4.764209  -1.644985  3.878965
H    -4.217267  -2.670325  2.516129
Sr    -0.155893  -1.132792  4.375352
