32
Energy: -103891.924652 eV PBE+vdW (tier 2 basis)
C    0.024993  -0.164539  -0.215773
C    -0.160886  -0.155780  1.262545
O    0.846569  -0.534366  2.018379
H    0.928233  0.403162  -0.475553
H    -0.828386  0.255447  -0.754416
H    0.177693  -1.198283  -0.557481
N    -1.263687  0.205504  1.850303
C    -2.564190  0.650055  1.319709
C    -3.130747  1.389633  2.569867
O    -2.710313  1.009578  3.678341
H    -1.367432  0.222361  2.898040
H    -2.411092  1.334625  0.475610
C    -3.375247  -0.597397  0.882958
C    -4.788000  -0.371184  0.298811
C    -5.096004  -1.479352  -0.718900
C    -5.871806  -0.330248  1.384079
H    -3.435768  -1.283008  1.743080
H    -2.757956  -1.103633  0.124249
H    -4.789472  0.584299  -0.251550
H    -5.059722  -2.471743  -0.246225
H    -6.102609  -1.353102  -1.136532
H    -4.385330  -1.473668  -1.556848
H    -6.848280  -0.086870  0.946869
H    -5.670991  0.400853  2.176708
H    -5.967348  -1.313820  1.866117
N    -4.000512  2.397258  2.435098
C    -4.570708  3.003587  1.237044
H    -4.316027  2.769943  3.329679
H    -3.968050  2.771060  0.354586
H    -5.597470  2.655772  1.064623
H    -4.582658  4.092077  1.362203
Sr    2.450291  -1.134846  3.297968
