32
Energy: -103893.555989 eV PBE+vdW (tier 2 basis)
C    -2.350009  -2.258199  0.894032
C    -1.707437  -1.179044  1.702318
O    -0.504413  -1.299457  2.099187
H    -3.401095  -2.058811  0.661442
H    -2.270571  -3.216427  1.423174
H    -1.791172  -2.366261  -0.046890
N    -2.420398  -0.084051  1.984676
C    -1.921938  1.167013  2.582721
C    -1.801777  1.029232  4.119728
O    -0.847011  0.332842  4.597133
H    -3.373610  -0.048745  1.627611
H    -0.880469  1.289094  2.243877
C    -2.739968  2.363209  2.068548
C    -4.293922  2.255710  2.160457
C    -4.899198  3.564856  2.688243
C    -4.920597  1.888092  0.805619
H    -2.451383  2.527662  1.020704
H    -2.379761  3.253542  2.604663
H    -4.565547  1.452951  2.874378
H    -4.522267  3.837864  3.687541
H    -5.991219  3.494719  2.759590
H    -4.660857  4.402749  2.018623
H    -4.523567  0.956424  0.370405
H    -4.734083  2.680107  0.067005
H    -6.006494  1.764586  0.896232
N    -2.664500  1.656146  4.895397
C    -2.666381  1.650439  6.357746
H    -3.393358  2.198855  4.434391
H    -3.562453  1.135018  6.725352
H    -2.674817  2.683960  6.722958
H    -1.772878  1.138789  6.720598
Sr    0.820146  -1.079864  3.921541
