32
Energy: -103893.004926 eV PBE+vdW (tier 2 basis)
C    -1.715917  2.014810  -0.570439
C    -0.923093  1.473589  0.572664
O    -0.187156  2.234960  1.277626
H    -2.653668  2.464988  -0.207849
H    -1.959880  1.252637  -1.317146
H    -1.138505  2.820629  -1.039466
N    -0.995178  0.162588  0.891389
C    -2.250749  -0.585299  0.947757
C    -3.135468  0.065234  2.036286
O    -2.620798  0.900540  2.860568
H    -0.296771  -0.144049  1.570278
H    -2.761743  -0.503266  -0.022438
C    -1.956765  -2.068537  1.248329
C    -1.213646  -2.805984  0.115565
C    -0.847418  -4.217322  0.592567
C    -2.034510  -2.848742  -1.177851
H    -2.904023  -2.586982  1.453848
H    -1.377478  -2.124259  2.186438
H    -0.273811  -2.264110  -0.089799
H    -0.273062  -4.745842  -0.177750
H    -1.747098  -4.814095  0.800767
H    -0.236381  -4.196289  1.505145
H    -1.494238  -3.402591  -1.955135
H    -2.238415  -1.851739  -1.598148
H    -2.996213  -3.360826  -1.024295
N    -4.418586  -0.239041  2.124330
C    -5.220887  -1.128376  1.279036
H    -4.907164  0.196844  2.907273
H    -6.193264  -0.655704  1.103588
H    -5.380384  -2.091097  1.781142
H    -4.735672  -1.299062  0.314601
Sr    -1.010350  2.449790  3.435170
