32
Energy: -103892.878446 eV PBE+vdW (tier 2 basis)
C    -1.236496  0.594474  3.256188
C    -2.235767  0.226733  4.303266
O    -1.985345  0.439131  5.533279
H    -1.618817  1.446802  2.674847
H    -1.054641  -0.216502  2.539662
H    -0.296650  0.892781  3.728026
N    -3.426089  -0.331746  3.978524
C    -3.602818  -1.408097  2.992966
C    -2.699681  -2.594914  3.440084
O    -2.097972  -2.567254  4.567847
H    -4.074814  -0.361989  4.764201
H    -4.636925  -1.755426  3.150486
C    -3.489183  -0.976794  1.502947
C    -4.698486  -1.352176  0.618250
C    -4.534228  -0.700402  -0.759650
C    -4.920482  -2.863621  0.483982
H    -2.561511  -1.367336  1.055178
H    -3.399540  0.116425  1.489704
H    -5.594600  -0.918983  1.096295
H    -3.652430  -1.093416  -1.286689
H    -4.424596  0.389289  -0.682847
H    -5.409479  -0.900459  -1.389459
H    -5.775300  -3.071453  -0.171518
H    -5.156787  -3.360974  1.439400
H    -4.053751  -3.358603  0.009888
N    -2.603040  -3.636029  2.640248
C    -1.851073  -4.856425  2.942328
H    -3.130668  -3.606309  1.765932
H    -2.262978  -5.353325  3.829049
H    -0.794353  -4.620931  3.113619
H    -1.932025  -5.529990  2.085477
Sr    -1.481859  -1.570121  6.556584
