32
Energy: -103893.000193 eV PBE+vdW (tier 2 basis)
C    -1.322541  -1.282674  -0.046560
C    -0.446744  -0.661292  0.990867
O    0.767987  -1.018711  1.117826
H    -1.143467  -0.822675  -1.030899
H    -2.388074  -1.201026  0.190281
H    -1.045411  -2.340288  -0.136257
N    -0.930736  0.299768  1.808740
C    -1.764497  1.402937  1.342707
C    -0.856826  2.337835  0.494307
O    0.373405  2.051819  0.298309
H    -0.317144  0.530177  2.591847
H    -2.518563  0.987151  0.656467
C    -2.488746  2.114979  2.520380
C    -4.024771  2.207490  2.378567
C    -4.468769  3.105362  1.217189
C    -4.684728  0.826420  2.310632
H    -2.064916  3.118772  2.668961
H    -2.260914  1.545426  3.432784
H    -4.360350  2.691864  3.309164
H    -5.558646  3.230970  1.216129
H    -4.226605  2.669260  0.230807
H    -4.044182  4.120027  1.291015
H    -5.777425  0.920537  2.327029
H    -4.394584  0.192938  3.159179
H    -4.437747  0.286784  1.381240
N    -1.401855  3.420638  -0.020415
C    -0.695244  4.403919  -0.845385
H    -2.390365  3.586475  0.177918
H    -1.405740  5.181902  -1.135830
H    -0.294727  3.929965  -1.749220
H    0.124466  4.861246  -0.278645
Sr    2.214101  0.671416  0.477857
