32
Energy: -103892.296478 eV PBE+vdW (tier 2 basis)
C    -0.346481  0.780450  -0.203817
C    -0.114209  0.327562  1.198874
O    1.105813  0.193407  1.631299
H    0.118218  1.764494  -0.355527
H    -1.410965  0.849778  -0.447847
H    0.134011  0.078760  -0.899498
N    -1.135181  0.072566  1.973461
C    -1.180344  -0.414868  3.349747
C    -2.675620  -0.887391  3.448168
O    -3.444254  -0.539430  2.545083
H    -2.129200  0.113662  1.629594
H    -0.511283  -1.283839  3.449178
C    -0.840744  0.696361  4.391746
C    0.168108  0.348571  5.507624
C    -0.234619  -0.840906  6.386717
C    1.609023  0.168458  4.989201
H    -1.774332  1.021265  4.870851
H    -0.477665  1.578216  3.843830
H    0.196053  1.238401  6.156566
H    0.457839  -0.965193  7.228792
H    -0.231430  -1.793954  5.833369
H    -1.232100  -0.683303  6.817224
H    2.320722  0.030393  5.813596
H    1.897941  1.088400  4.436965
H    1.652785  -0.740656  4.350561
N    -3.021533  -1.614599  4.515757
C    -4.386699  -2.082317  4.762201
H    -2.306864  -1.858074  5.192566
H    -4.764274  -1.669969  5.705567
H    -4.406907  -3.177371  4.810834
H    -5.021791  -1.744363  3.939553
Sr    3.118005  0.087135  2.402930
