32
Energy: -103892.302809 eV PBE+vdW (tier 2 basis)
C    0.669924  -0.400384  0.141739
C    0.466190  -0.329175  1.618633
O    1.494266  -0.206276  2.397446
H    1.232248  0.477013  -0.204945
H    -0.272708  -0.465189  -0.410143
H    1.278500  -1.286550  -0.088845
N    -0.753504  -0.379653  2.101514
C    -1.220348  -0.553110  3.478157
C    -2.581725  -1.301664  3.242718
O    -3.076815  -1.230334  2.113903
H    -1.575877  -0.551982  1.474993
H    -0.514637  -1.199962  4.017383
C    -1.514078  0.756645  4.251345
C    -0.348821  1.582001  4.851425
C    0.610327  0.726625  5.699463
C    0.352883  2.508914  3.839963
H    -2.171160  0.482897  5.088195
H    -2.123212  1.404374  3.604395
H    -0.828153  2.267493  5.567662
H    1.415496  1.333380  6.156943
H    1.021183  -0.150531  5.156255
H    0.094761  0.270103  6.555069
H    1.163100  3.097020  4.316045
H    -0.339459  3.269217  3.455336
H    0.706967  1.996424  2.926174
N    -3.156438  -1.957709  4.263000
C    -2.677482  -2.158444  5.624368
H    -4.059654  -2.363331  4.022643
H    -3.004006  -3.144222  5.972377
H    -3.074485  -1.401603  6.316437
H    -1.582241  -2.146604  5.662717
Sr    2.855571  0.867963  3.728943
