32
Energy: -103892.945629 eV PBE+vdW (tier 2 basis)
C    0.265941  -0.864198  1.426644
C    -0.387485  -0.624316  2.746925
O    0.231465  -0.845736  3.834852
H    0.868313  0.010934  1.135103
H    -0.453521  -1.072486  0.628115
H    0.958228  -1.707877  1.530428
N    -1.649425  -0.141937  2.809070
C    -2.154755  0.933950  1.965084
C    -1.271977  2.189943  2.205964
O    -0.425756  2.209337  3.163345
H    -2.075541  -0.180552  3.735787
H    -2.021027  0.652831  0.909578
C    -3.673538  1.145232  2.210973
C    -4.192568  1.089648  3.663470
C    -3.542783  2.107807  4.611174
C    -5.717342  1.278917  3.641050
H    -4.194167  0.373222  1.627940
H    -3.967457  2.107092  1.768997
H    -4.016654  0.072616  4.062347
H    -4.029282  2.083701  5.593871
H    -3.628945  3.134488  4.226765
H    -2.466643  1.917887  4.780970
H    -6.139088  1.155873  4.645843
H    -6.204622  0.546778  2.984646
H    -5.985997  2.283970  3.286057
N    -1.365322  3.231545  1.396485
C    -2.199320  3.418439  0.205512
H    -0.760372  4.014439  1.646694
H    -1.616564  3.972959  -0.537514
H    -3.099841  3.996070  0.449876
H    -2.490088  2.458166  -0.228978
Sr    0.633896  1.164098  4.926019
