32
Energy: -103892.32091 eV PBE+vdW (tier 2 basis)
C    0.291425  1.136396  0.441131
C    -0.292928  0.311456  1.538026
O    0.422241  0.046180  2.586512
H    0.636089  2.100034  0.839301
H    -0.418225  1.315937  -0.372169
H    1.172982  0.618104  0.037446
N    -1.520123  -0.136760  1.425732
C    -2.258784  -1.077874  2.268193
C    -3.329049  -1.623441  1.258011
O    -3.520759  -0.967619  0.230037
H    -2.087623  0.020660  0.559480
H    -1.583613  -1.885145  2.587475
C    -2.978535  -0.410118  3.461344
C    -2.140541  0.039916  4.677733
C    -3.017598  0.805735  5.677808
C    -1.453637  -1.149739  5.378073
H    -3.744620  -1.106927  3.833459
H    -3.530637  0.457579  3.073047
H    -1.388524  0.771567  4.293649
H    -2.444941  1.149451  6.550182
H    -3.829592  0.166303  6.050202
H    -3.473795  1.685942  5.209114
H    -0.895237  -0.853046  6.290595
H    -0.824708  -1.776760  4.712293
H    -2.204947  -1.852241  5.765918
N    -3.999059  -2.748261  1.554776
C    -3.857014  -3.636567  2.700577
H    -4.705346  -2.990733  0.861625
H    -4.048442  -4.665291  2.377126
H    -4.568495  -3.391239  3.502439
H    -2.836298  -3.605932  3.098636
Sr    1.069706  0.032693  4.659437
