32
Energy: -103893.498933 eV PBE+vdW (tier 2 basis)
C    -1.079224  -0.948024  0.556958
C    -0.855771  0.038872  1.656029
O    0.317927  0.442186  1.921366
H    -0.555806  -1.880074  0.814871
H    -0.624674  -0.572983  -0.369139
H    -2.135227  -1.173478  0.376780
N    -1.923659  0.466653  2.344440
C    -1.970998  1.302735  3.565537
C    -1.569473  2.753677  3.256999
O    -0.342330  3.071147  3.141072
H    -2.811172  0.062091  2.060694
H    -3.029778  1.302135  3.851117
C    -1.172302  0.743606  4.766003
C    -1.895733  -0.339026  5.595612
C    -2.278706  -1.584659  4.787383
C    -1.020762  -0.710610  6.798959
H    -0.937486  1.587340  5.433145
H    -0.210431  0.326199  4.419275
H    -2.822412  0.120628  5.982386
H    -3.043983  -1.387374  4.023325
H    -2.700019  -2.349264  5.451282
H    -1.402891  -2.032100  4.293019
H    -0.087544  -1.198554  6.478616
H    -1.545478  -1.416221  7.454202
H    -0.759435  0.167851  7.404647
N    -2.503321  3.686025  3.149322
C    -3.962360  3.546759  3.248963
H    -2.142305  4.626747  2.987392
H    -4.407491  4.513342  2.997762
H    -4.267808  3.284332  4.269336
H    -4.340331  2.805647  2.535656
Sr    1.665980  2.050393  2.770995
