32
Energy: -103893.571483 eV PBE+vdW (tier 2 basis)
C    -2.595451  -2.389665  1.166867
C    -1.855133  -1.271276  1.823813
O    -0.654410  -1.432303  2.211011
H    -3.635114  -2.142111  0.929399
H    -2.571678  -3.278497  1.810304
H    -2.071008  -2.654841  0.237421
N    -2.479203  -0.098654  1.982351
C    -1.872002  1.168511  2.416785
C    -1.705845  1.204861  3.955387
O    -0.740761  0.547449  4.470018
H    -3.431506  -0.028920  1.628766
H    -0.830013  1.150464  2.060101
C    -2.565806  2.371529  1.724761
C    -4.085928  2.340425  1.438074
C    -4.991049  2.252679  2.674230
C    -4.441923  3.578134  0.599395
H    -2.059718  2.491740  0.756724
H    -2.313560  3.281838  2.290940
H    -4.303078  1.466340  0.793833
H    -4.865901  3.135793  3.325280
H    -4.848028  1.338324  3.271444
H    -6.046757  2.258027  2.375519
H    -5.500470  3.560482  0.313909
H    -3.848256  3.629195  -0.322177
H    -4.265487  4.503222  1.166598
N    -2.522888  1.928776  4.691174
C    -2.458892  2.081627  6.143857
H    -3.286203  2.401910  4.207207
H    -3.284322  1.533161  6.615580
H    -2.548242  3.144272  6.395503
H    -1.505188  1.695597  6.509567
Sr    0.784821  -1.060085  3.921360
