32
Energy: -103893.637884 eV PBE+vdW (tier 2 basis)
C    0.091025  0.944660  0.118798
C    -0.038751  0.468678  1.529409
O    0.997526  0.168558  2.198031
H    -0.862899  1.222256  -0.340965
H    0.554225  0.144767  -0.476683
H    0.773973  1.803330  0.083338
N    -1.268952  0.369170  2.051161
C    -1.697172  -0.226540  3.337398
C    -1.304798  0.641212  4.544307
O    -0.095350  0.726845  4.923873
H    -2.026768  0.626337  1.424846
H    -2.793028  -0.225606  3.273556
C    -1.263193  -1.691357  3.537823
C    -1.682652  -2.661808  2.415386
C    -1.153201  -4.063967  2.740602
C    -3.200250  -2.678847  2.195108
H    -1.700029  -2.024478  4.493459
H    -0.168979  -1.759709  3.664078
H    -1.199268  -2.330107  1.480139
H    -0.062071  -4.069581  2.877475
H    -1.382923  -4.762307  1.926966
H    -1.612402  -4.462290  3.656551
H    -3.736317  -2.950384  3.116328
H    -3.465278  -3.423071  1.434450
H    -3.600123  -1.717560  1.838527
N    -2.283951  1.250073  5.194618
C    -2.131475  2.066741  6.399162
H    -3.227884  1.141494  4.831379
H    -2.314586  3.122017  6.160841
H    -1.118693  1.948499  6.789911
H    -2.858388  1.738366  7.150497
Sr    2.002632  0.149611  4.222629
