32
Energy: -103892.07987 eV PBE+vdW (tier 2 basis)
C    -2.560501  1.328990  0.360595
C    -1.888871  1.188400  1.680882
O    -1.193524  2.210887  2.134634
H    -3.195102  2.225530  0.368067
H    -3.168933  0.460348  0.100635
H    -1.802212  1.473866  -0.422212
N    -1.943530  0.120278  2.419794
C    -2.626540  -1.169794  2.268720
C    -2.543723  -1.692389  3.744925
O    -1.825815  -1.058787  4.543005
H    -1.519932  0.084840  3.395761
H    -3.677225  -1.000286  1.991572
C    -1.920791  -2.113242  1.246560
C    -2.830496  -2.939511  0.305921
C    -3.753909  -3.933399  1.019897
C    -3.619605  -2.072504  -0.681059
H    -1.253419  -2.789441  1.799913
H    -1.264879  -1.491877  0.619360
H    -2.118921  -3.537919  -0.286037
H    -4.240429  -4.593417  0.290892
H    -4.578794  -3.426798  1.551099
H    -3.205902  -4.581781  1.718221
H    -4.167879  -2.702390  -1.392782
H    -2.959992  -1.420722  -1.270928
H    -4.377753  -1.449108  -0.179268
N    -3.234465  -2.786924  4.051902
C    -3.214073  -3.418308  5.370005
H    -3.758168  -3.245878  3.311338
H    -2.637541  -4.351787  5.340947
H    -4.239520  -3.638870  5.686406
H    -2.750379  -2.731865  6.082680
Sr    -0.080674  3.832398  2.962246
