18
Energy: -30471.6404634 eV PBE+vdW (tier 2 basis)
N    0.287186  -0.591875  0.227626
C    -0.179533  -0.177396  1.540689
C    1.043450  0.387820  2.218669
O    1.996238  -0.304368  2.766614
H    0.483277  0.163300  -0.426531
H    1.009192  -1.308697  0.193109
H    -0.875374  0.659806  1.403488
C    -0.963125  -1.314754  2.259672
O    -1.760808  -0.789904  3.302349
C    -0.118728  -2.488665  2.763827
H    -1.616204  -1.685320  1.450213
H    1.758275  -1.255759  2.856623
H    0.420630  -2.242553  3.694613
H    0.576900  -2.870536  1.999702
H    -0.765016  -3.338634  3.014990
O    1.232689  1.664556  2.133694
H    2.123432  1.942425  2.451015
Ca    -3.206483  -0.479449  4.552640
