18
Energy: -30473.0571335 eV PBE+vdW (tier 2 basis)
N    -0.004882  -0.072080  -0.061982
C    -0.005070  0.024732  1.450288
C    1.441131  0.083482  1.941505
O    2.318619  -0.677548  1.395183
H    0.660522  -0.800697  -0.369260
H    0.269819  0.816981  -0.504542
H    -0.514327  0.954471  1.727444
C    -0.746254  -1.208754  2.084884
O    -0.234776  -1.239405  3.412166
C    -0.534795  -2.534183  1.356138
H    -1.819379  -0.951754  2.088217
H    -0.885396  -1.653772  4.002789
H    -1.027027  -3.326511  1.934582
H    0.527148  -2.799680  1.270027
H    -1.005353  -2.565394  0.361414
O    1.736413  0.836526  2.920201
H    -0.939046  -0.318751  -0.421717
Ca    3.655654  -0.177662  3.112661
