18
Energy: -30473.4576133 eV PBE+vdW (tier 2 basis)
N    0.152428  1.383328  1.527322
C    0.362489  0.229895  2.446539
C    1.880297  0.078094  2.630298
O    2.632871  0.337018  1.676303
H    0.393502  2.256427  2.009957
H    -0.848225  1.466437  1.316682
H    -0.139497  0.364002  3.417715
C    -0.201660  -1.064509  1.794203
O    0.364186  -1.086872  0.422889
C    -1.716249  -1.133759  1.761432
H    0.208877  -1.933799  2.330359
H    0.096561  -1.920807  -0.004547
H    -2.115058  -1.145667  2.784817
H    -2.043601  -2.066871  1.283369
H    -2.175749  -0.298875  1.215442
O    2.397711  -0.371012  3.740322
H    1.756938  -0.500976  4.468891
Ca    1.666180  0.674946  -0.276994
