18
Energy: -30473.0209394 eV PBE+vdW (tier 2 basis)
N    0.865438  -1.131312  0.589528
C    0.045303  -0.090870  1.331562
C    0.862505  0.444026  2.528242
O    0.703106  0.091769  3.701746
H    1.864647  -0.903900  0.494606
H    0.729538  -2.016442  1.126478
H    -0.139241  0.745005  0.644060
C    -1.243244  -0.818698  1.790587
O    -0.821593  -1.935103  2.547720
C    -2.155460  -1.210425  0.629452
H    -1.792799  -0.076649  2.408570
H    0.486378  -1.274273  -0.358381
H    -2.454182  -0.337611  0.033462
H    -3.066290  -1.668845  1.031111
H    -1.698185  -1.962360  -0.030574
O    1.740371  1.344078  2.146410
H    2.245573  1.711361  2.907603
Ca    -0.448865  -1.751751  4.527819
