18
Energy: -30473.4748792 eV PBE+vdW (tier 2 basis)
N    0.468862  -0.351408  -0.057380
C    -0.073887  0.041979  1.295265
C    1.088191  0.563022  2.140474
O    2.233915  0.761563  1.597680
H    1.350929  0.148945  -0.251625
H    -0.198448  -0.192820  -0.821785
H    -0.802279  0.856036  1.178560
C    -0.744438  -1.209655  1.917356
O    0.268091  -2.211274  1.720407
C    -2.081707  -1.564280  1.284653
H    -0.874589  -0.997370  2.990317
H    -0.088243  -3.094433  1.917433
H    -2.486626  -2.468353  1.758418
H    -2.004520  -1.766714  0.206618
H    -2.816482  -0.763984  1.443805
O    0.896054  0.814507  3.372854
H    0.674108  -1.373832  0.026073
Ca    2.985068  1.436069  3.585876
