18
Energy: -30472.6770958 eV PBE+vdW (tier 2 basis)
N    0.246178  -0.293893  0.206906
C    -0.110787  0.051923  1.635380
C    0.843916  -0.805195  2.474197
O    1.397713  -1.776969  1.990426
H    0.861167  0.409008  -0.223433
H    0.775306  -1.196285  0.272835
H    0.068305  1.121175  1.798097
C    -1.597717  -0.270181  1.970023
O    -1.818868  -1.666938  1.968770
C    -2.571875  0.456442  1.046140
H    -1.726491  0.116048  2.995933
H    -0.585701  -0.398794  -0.388338
H    -2.533536  0.086539  0.008835
H    -2.390404  1.539338  1.039648
H    -3.598457  0.298839  1.397150
O    0.929354  -0.373100  3.723749
H    1.571660  -0.918194  4.226693
Ca    -2.443763  -3.465765  2.340987
