18
Energy: -30471.094648 eV PBE+vdW (tier 2 basis)
N    0.596812  -0.761743  0.084629
C    0.110877  -0.016771  1.210153
C    1.263829  0.501721  2.076446
O    2.429674  0.324799  1.888113
H    0.240681  -0.431959  -0.809423
H    1.618243  -0.784992  0.057244
H    -0.471112  0.872358  0.915563
C    -0.896764  -0.930981  2.025526
O    -1.193514  -0.377256  3.384164
C    -0.404644  -2.370266  2.162585
H    -1.849449  -0.904212  1.480060
H    -0.594138  0.431412  3.521868
H    -1.191280  -3.147729  2.279040
H    0.428697  -2.495903  2.881850
H    0.035401  -2.622444  1.175319
O    0.752570  1.239002  3.139621
H    1.490599  1.634523  3.652204
Ca    -1.696505  -2.110407  4.504982
