18
Energy: -30473.0548232 eV PBE+vdW (tier 2 basis)
N    -0.035731  0.475635  -0.090637
C    0.251005  0.096275  1.290980
C    1.600483  -0.652445  1.242979
O    2.098341  -1.213027  2.257964
H    -0.245641  1.466256  -0.210162
H    -0.767957  -0.072821  -0.542783
H    0.431844  1.007367  1.883946
C    -0.864443  -0.714119  1.997001
O    -0.461565  -0.886311  3.441460
C    -1.173924  -2.070574  1.397954
H    -1.759416  -0.077970  2.019616
H    -1.259851  -0.727257  3.977202
H    -1.540507  -1.970335  0.366678
H    -1.974719  -2.569376  1.957291
H    -0.293879  -2.729665  1.369414
O    2.179190  -0.650236  0.106511
H    1.483320  -0.121945  -0.475556
Ca    1.511451  -1.720451  4.199142
