18
Energy: -30472.5200112 eV PBE+vdW (tier 2 basis)
N    0.424017  0.219465  0.179243
C    0.283474  -0.113341  1.638940
C    1.680376  -0.258357  2.229064
O    2.677296  0.123852  1.568682
H    -0.416692  0.752382  -0.077012
H    0.283297  -0.660102  -0.339516
H    -0.156895  0.772329  2.133182
C    -0.722618  -1.280647  1.863440
O    -1.846520  -0.812861  1.130334
C    -1.051414  -1.561364  3.330638
H    -0.303619  -2.197065  1.398720
H    -2.581167  -1.446955  1.194610
H    -1.938749  -2.207889  3.380878
H    -1.289540  -0.648281  3.893946
H    -0.276477  -2.156909  3.844366
O    1.881357  -0.704396  3.428382
H    1.050996  -1.005065  3.867110
Ca    2.631880  1.087204  -0.331005
