18
Energy: -30472.2917071 eV PBE+vdW (tier 2 basis)
N    0.727946  -0.359862  0.044073
C    0.332032  0.035571  1.352438
C    1.540238  0.326987  2.256141
O    2.705344  0.497565  1.803375
H    1.075039  -1.308352  -0.063539
H    0.081460  -0.109943  -0.697847
H    -0.157165  1.025942  1.272359
C    -0.702351  -0.905201  2.042555
O    -1.042549  -0.189428  3.380857
C    -0.281693  -2.327451  2.310272
H    -1.646629  -0.843665  1.490158
H    -1.540892  -0.765034  3.998937
H    -1.074163  -2.886812  2.825866
H    0.645958  -2.400037  2.894127
H    -0.129020  -2.843034  1.352402
O    1.349173  0.469376  3.550055
H    -0.115314  0.100417  3.762258
Ca    3.515913  1.124127  3.712909
