18
Energy: -30472.6187487 eV PBE+vdW (tier 2 basis)
N    -0.518727  0.175659  -0.051855
C    -0.194419  0.117596  1.418291
C    1.303755  0.490190  1.464972
O    1.975176  0.416418  0.454527
H    -1.180156  -0.577846  -0.289564
H    -0.915699  1.078728  -0.339068
H    -0.811508  0.848217  1.955479
C    -0.477128  -1.326992  1.932322
O    -1.770353  -1.732978  1.488915
C    -0.367907  -1.420822  3.448920
H    0.268397  -1.994439  1.461860
H    0.409563  0.063649  -0.534253
H    0.625396  -1.133906  3.813132
H    -0.527941  -2.460701  3.767316
H    -1.105873  -0.770766  3.939789
O    1.704312  0.857917  2.672322
H    2.661065  1.079164  2.650544
Ca    -3.338953  -2.859088  1.843351
