18
Energy: -30472.7910739 eV PBE+vdW (tier 2 basis)
N    0.949637  -1.369295  0.990929
C    0.113710  -0.238940  1.352937
C    0.805880  0.573045  2.439958
O    0.628441  0.368294  3.676881
H    1.669695  -1.147988  0.305392
H    1.360654  -1.882599  1.767133
H    0.024387  0.415998  0.473833
C    -1.324095  -0.653118  1.721551
O    -1.285607  -1.580497  2.922169
C    -2.059571  -1.340315  0.595419
H    -1.883849  0.227218  2.072917
H    -1.617164  -2.446355  2.618846
H    -3.067307  -1.642153  0.910039
H    -1.498160  -2.207581  0.223396
H    -2.187063  -0.642067  -0.242942
O    1.667628  1.446999  2.005699
H    2.164911  1.883320  2.733309
Ca    -0.613128  -0.858966  4.904533
