26
Energy: -572024.380922 eV PBE+vdW (tier 2 basis)
C    0.597030  0.381503  0.520775
C    0.022194  0.190748  1.892160
O    0.659626  0.401583  2.914897
H    0.780384  1.453868  0.362506
H    -0.021422  -0.019384  -0.288495
H    1.581192  -0.105062  0.496926
N    -1.299585  -0.246405  2.095821
C    -2.444129  -0.116444  1.223523
C    -2.410658  -1.125966  0.024940
O    -2.873765  -0.753062  -1.053401
H    -1.494110  -0.370273  3.093833
H    -3.323297  -0.382922  1.830621
C    -2.670406  1.306001  0.666194
C    -4.003683  1.429339  -0.072268
O    -4.088131  2.150577  -1.169511
O    -5.036224  0.954928  0.425239
H    -1.852742  1.625247  0.008547
H    -2.723268  2.016697  1.507069
N    -1.910291  -2.349270  0.268406
C    -1.910229  -3.426761  -0.711678
H    -1.644243  -2.567527  1.227613
H    -1.053569  -4.081374  -0.512585
H    -1.852970  -3.001338  -1.719135
H    -2.828833  -4.029478  -0.633789
H    -3.225819  2.452431  -1.518129
Hg    -7.076734  1.199167  -0.819801
