26
Energy: -572024.917577 eV PBE+vdW (tier 2 basis)
C    0.163072  -0.106868  0.331435
C    -0.067384  -0.067226  1.807419
O    0.811673  -0.093200  2.662684
H    1.129568  -0.577791  0.128164
H    0.200296  0.923281  -0.056325
H    -0.638742  -0.640627  -0.195316
N    -1.406957  0.022971  2.252936
C    -1.584116  0.296190  3.644652
C    -1.171201  -0.946558  4.500729
O    -0.608464  -0.810693  5.627790
H    -2.133422  0.272899  1.582617
H    -0.808564  1.050075  3.918333
C    -2.951086  0.878837  4.033344
C    -2.929213  1.817556  5.246670
O    -4.075749  2.333330  5.630687
O    -1.929355  2.157523  5.892883
H    -3.693211  0.090846  4.233918
H    -3.344085  1.470542  3.189949
N    -1.486448  -2.139991  4.040135
C    -1.200339  -3.407746  4.716832
H    -1.993859  -2.166076  3.154735
H    -2.041988  -3.695566  5.361557
H    -0.299367  -3.297072  5.328481
H    -1.054110  -4.178703  3.953506
H    -4.843380  2.070328  5.084726
Hg    0.271611  1.242867  5.884253
