26
Energy: -572024.97849 eV PBE+vdW (tier 2 basis)
C    -0.178585  1.048554  1.130713
C    0.274888  0.132630  2.214149
O    1.520577  0.008039  2.430042
H    0.492618  1.916993  1.100230
H    -1.210652  1.389293  1.265595
H    -0.073060  0.540698  0.158951
N    -0.611421  -0.539686  2.995779
C    -1.884583  -1.170535  2.575244
C    -2.639435  -1.544169  3.848993
O    -2.168236  -2.498564  4.602421
H    -0.153638  -1.022822  3.770204
H    -2.464437  -0.455867  1.983797
C    -1.633873  -2.457220  1.697801
C    -0.240851  -2.964624  2.107392
O    -0.036289  -3.265824  3.311528
O    0.673761  -2.794828  1.231440
H    -1.639695  -2.198764  0.635753
H    -2.394611  -3.228118  1.877713
N    -3.748258  -0.975458  4.241343
C    -4.516640  0.129353  3.660577
H    -4.132951  -1.371484  5.106359
H    -4.602226  0.927333  4.408128
H    -5.520251  -0.231453  3.404710
H    -4.032790  0.527609  2.766360
H    -1.338779  -2.944075  4.200655
Hg    2.352025  -2.174077  2.559987
