26
Energy: -572024.541425 eV PBE+vdW (tier 2 basis)
C    -1.605012  1.476871  0.272679
C    -0.450213  0.691873  0.821863
O    0.716810  0.939258  0.583886
H    -1.221969  2.419556  -0.130708
H    -2.361467  1.689575  1.040030
H    -2.074777  0.930064  -0.559758
N    -0.700514  -0.410353  1.680231
C    -1.910939  -1.180277  1.742362
C    -2.689007  -0.968270  3.086569
O    -3.831296  -1.488933  3.275095
H    0.171555  -0.878991  1.936575
H    -2.611111  -0.781493  0.987122
C    -1.670476  -2.706353  1.486931
C    -2.290873  -3.212668  0.190542
O    -1.554468  -3.787111  -0.726898
O    -3.507908  -3.116789  -0.064098
H    -2.111575  -3.314905  2.292206
H    -0.593529  -2.914527  1.510360
N    -2.117335  -0.229447  4.008719
C    -2.682993  0.097890  5.322925
H    -1.183803  0.116827  3.773310
H    -2.349723  -0.636651  6.067651
H    -3.775196  0.090855  5.267058
H    -2.325444  1.090982  5.612548
H    -0.605395  -3.851629  -0.500657
Hg    -5.021512  -2.437184  1.562724
