26
Energy: -572025.102205 eV PBE+vdW (tier 2 basis)
C    -1.118279  -2.733908  0.254360
C    -0.576479  -1.506930  0.907369
O    0.626705  -1.198630  0.776043
H    -0.650431  -2.833411  -0.734316
H    -2.207676  -2.730266  0.141042
H    -0.805588  -3.619916  0.829638
N    -1.434711  -0.675652  1.628171
C    -2.382582  -1.216918  2.621701
C    -3.780104  -0.647008  2.352116
O    -3.978129  0.022480  1.252014
H    -0.953724  0.170025  1.952156
H    -2.445323  -2.303858  2.463141
C    -1.873176  -0.964294  4.084049
C    -0.337408  -1.024750  3.983668
O    0.240654  0.109059  3.875005
O    0.207435  -2.138153  3.789451
H    -2.222554  -1.748726  4.765230
H    -2.170865  0.021904  4.455363
N    -4.780914  -0.832045  3.165885
C    -6.162742  -0.357474  2.969193
H    -4.606620  -1.375231  4.010875
H    -6.817140  -1.225235  2.819610
H    -6.208718  0.300997  2.099630
H    -6.475350  0.182974  3.869869
H    -3.124418  0.084748  0.758066
Hg    1.985138  -0.873779  2.744670
