26
Energy: -572024.900137 eV PBE+vdW (tier 2 basis)
C    0.627224  -0.322153  -0.129972
C    0.186611  -0.304167  1.300561
O    1.065768  -0.084846  2.183429
H    0.926103  0.696686  -0.417536
H    -0.164243  -0.670591  -0.804037
H    1.513304  -0.960975  -0.229516
N    -1.129497  -0.520760  1.573656
C    -1.621533  -0.349658  2.923102
C    -1.486992  -1.619799  3.797904
O    -0.602674  -1.631327  4.722351
H    -1.749887  -0.701092  0.788124
H    -0.861470  0.309584  3.343286
C    -2.851200  0.524867  3.198583
C    -2.496625  1.498376  4.354569
O    -3.447965  2.289144  4.806653
O    -1.378247  1.579965  4.863919
H    -3.751189  -0.040025  3.477721
H    -3.105589  1.126188  2.311756
N    -2.246696  -2.685015  3.628435
C    -3.354263  -2.892216  2.694412
H    -2.039305  -3.462191  4.261357
H    -3.125634  -3.749494  2.048936
H    -3.517312  -2.010282  2.069735
H    -4.272527  -3.106093  3.255183
H    -4.303436  2.188011  4.344900
Hg    0.826271  0.109860  4.532489
