26
Energy: -572025.782192 eV PBE+vdW (tier 2 basis)
C    0.266820  0.242580  -1.157007
C    -0.274399  -0.766096  -0.190329
O    -0.089930  -1.987843  -0.449409
H    -0.213493  0.091490  -2.133455
H    1.339466  0.051851  -1.298758
H    0.123168  1.279193  -0.833340
N    -0.902979  -0.291904  0.911345
C    -1.446297  -0.978777  2.097975
C    -0.527424  -2.102500  2.652678
O    -0.689104  -3.341059  2.402523
H    -0.955876  0.722919  0.957233
H    -1.418220  -0.200499  2.872310
C    -2.965998  -1.366523  2.048004
C    -3.628553  -1.716881  0.731246
O    -4.684868  -0.977425  0.493364
O    -3.303970  -2.623898  -0.063742
H    -3.538601  -0.532408  2.467821
H    -3.138075  -2.225067  2.718547
N    0.418501  -1.725507  3.497697
C    1.374294  -2.634491  4.137662
H    0.450165  -0.749385  3.786394
H    0.989774  -2.954306  5.115678
H    2.319165  -2.100227  4.279429
H    1.522077  -3.513665  3.504806
H    -5.152617  -1.270917  -0.321599
Hg    -1.344026  -3.715655  0.304925
