26
Energy: -572024.785243 eV PBE+vdW (tier 2 basis)
C    -0.345117  -0.523614  -0.443411
C    -0.545600  0.162588  0.867293
O    0.344958  0.154502  1.744410
H    0.550063  -0.112492  -0.929485
H    -1.204804  -0.438700  -1.116682
H    -0.137649  -1.585949  -0.251114
N    -1.743495  0.792833  1.087612
C    -1.956359  1.478608  2.351170
C    -3.417452  1.870184  2.664995
O    -3.709062  2.974055  3.269078
H    -2.351096  0.964074  0.291550
H    -1.717795  0.735837  3.137839
C    -0.956360  2.675580  2.499090
C    -0.120974  2.499390  3.751562
O    0.770524  1.591277  3.764007
O    -0.309082  3.179032  4.824556
H    -1.453704  3.653493  2.464189
H    -0.276648  2.665946  1.638946
N    -4.440100  1.085914  2.372078
C    -4.514350  -0.219696  1.703262
H    -5.337271  1.474371  2.676808
H    -5.350466  -0.764746  2.155775
H    -3.595446  -0.791335  1.847967
H    -4.726482  -0.098023  0.632291
H    0.685890  0.987948  2.885559
Hg    -2.379668  3.846771  4.815997
