26
Energy: -572025.127847 eV PBE+vdW (tier 2 basis)
C    -0.239701  -0.343142  -0.065060
C    0.015756  -0.192119  1.403021
O    1.196266  -0.524983  1.777606
H    -1.163948  0.155715  -0.380158
H    -0.326160  -1.418056  -0.289375
H    0.613503  0.044256  -0.633600
N    -0.985266  0.261847  2.174678
C    -1.285180  0.154810  3.631855
C    -0.633100  1.232326  4.521633
O    0.560371  1.136038  5.012983
H    -1.828608  0.451599  1.635680
H    -2.363896  0.354393  3.656707
C    -1.148404  -1.267628  4.195251
C    -2.270409  -2.151705  3.618253
O    -2.104964  -3.416325  3.991215
O    -3.164497  -1.704124  2.931417
H    -1.257637  -1.253157  5.290790
H    -0.189318  -1.767414  3.986372
N    -1.340648  2.277173  4.903007
C    -2.754416  2.599776  4.654054
H    -0.838511  2.913942  5.528407
H    -3.022452  2.426864  3.607094
H    -2.889670  3.663973  4.870130
H    -3.409170  2.021975  5.319470
H    -2.846327  -3.963155  3.652593
Hg    1.861387  -0.064879  3.779979
