26
Energy: -572024.593847 eV PBE+vdW (tier 2 basis)
C    -0.057093  0.474262  0.007223
C    -0.165642  0.844402  1.442589
O    0.734433  1.586887  1.956095
H    -0.265249  1.350651  -0.625327
H    -0.711136  -0.362703  -0.258968
H    0.987614  0.194493  -0.196963
N    -1.170038  0.402801  2.237367
C    -2.589125  0.378154  1.905723
C    -3.158934  1.747417  2.382322
O    -2.523184  2.495888  3.199560
H    -0.989856  0.538226  3.234483
H    -2.696097  0.311408  0.815108
C    -3.243401  -0.856512  2.576709
C    -4.630139  -1.276256  2.112002
O    -5.097342  -0.569760  1.043304
O    -5.240727  -2.173663  2.633380
H    -3.283802  -0.747185  3.670510
H    -2.596039  -1.725238  2.380984
N    -4.364257  2.097399  1.961836
C    -5.043683  3.350318  2.278794
H    -4.891593  1.378453  1.450479
H    -5.654352  3.642553  1.417419
H    -4.308968  4.124454  2.515157
H    -5.704780  3.209306  3.147382
H    -5.953891  -0.963638  0.765608
Hg    -0.257818  3.138561  3.314206
