26
Energy: -572025.406559 eV PBE+vdW (tier 2 basis)
C    -0.760836  0.130317  0.226481
C    -0.429718  0.298978  1.676880
O    0.620029  0.930044  1.976864
H    0.006715  -0.506205  -0.236798
H    -0.698799  1.109560  -0.266612
H    -1.750573  -0.305077  0.050345
N    -1.300586  -0.224443  2.576348
C    -1.333512  -0.142188  4.045135
C    -0.929354  1.248776  4.599505
O    0.211426  1.483784  5.119423
H    -2.100256  -0.695552  2.160257
H    -2.401637  -0.227398  4.285426
C    -0.691905  -1.340974  4.833270
C    0.477479  -2.103804  4.227865
O    0.411116  -3.411489  4.141302
O    1.543334  -1.598435  3.827539
H    -1.498738  -2.052170  5.048462
H    -0.345743  -0.975763  5.814617
N    -1.840573  2.209073  4.623684
C    -3.262446  2.160515  4.266175
H    -1.501441  3.084351  5.031181
H    -3.608479  3.190344  4.134650
H    -3.853971  1.699600  5.069375
H    -3.415240  1.627826  3.322057
H    -0.421376  -3.793909  4.481033
Hg    1.856531  0.640016  3.859749
