26
Energy: -572024.74204 eV PBE+vdW (tier 2 basis)
C    1.007721  -0.057852  0.434673
C    0.109255  -0.395723  1.575159
O    0.090402  -1.553350  2.132116
H    0.980282  -0.870183  -0.302865
H    2.042451  0.031981  0.803345
H    0.743111  0.888216  -0.049098
N    -0.728013  0.529003  2.042346
C    -1.620617  0.400279  3.195291
C    -2.600228  1.602070  3.052874
O    -2.233043  2.593439  2.429482
H    -0.807589  1.442496  1.575596
H    -2.152085  -0.560601  3.140771
C    -0.876861  0.543811  4.568660
C    0.124963  -0.575783  4.774572
O    -0.232468  -1.720090  5.330262
O    1.280427  -0.454319  4.338702
H    -1.619306  0.546336  5.379584
H    -0.338873  1.500368  4.594873
N    -3.812477  1.500481  3.655650
C    -4.808034  2.555570  3.593658
H    -4.101370  0.601589  4.037851
H    -5.387720  2.557101  4.525362
H    -5.510095  2.378694  2.759479
H    -4.309693  3.515949  3.427253
H    -1.133253  -1.715257  5.708816
Hg    2.004629  -2.350502  3.075570
