26
Energy: -572025.097356 eV PBE+vdW (tier 2 basis)
C    -0.879634  -3.620433  0.576609
C    -0.510329  -2.228213  0.955515
O    0.664425  -1.815870  0.698149
H    -1.960657  -3.760088  0.469976
H    -0.481389  -4.318749  1.329755
H    -0.382987  -3.870829  -0.370143
N    -1.405897  -1.384100  1.531065
C    -2.432896  -1.711446  2.549368
C    -3.370911  -0.509114  2.654700
O    -2.931376  0.605961  3.156511
H    -1.043924  -0.432667  1.611186
H    -2.996934  -2.594194  2.225097
C    -1.776701  -2.015154  3.949680
C    -0.449630  -1.236260  3.951021
O    -0.476174  0.008428  3.781107
O    0.598485  -1.965602  3.871314
H    -1.583188  -3.085762  4.056260
H    -2.418439  -1.688031  4.778337
N    -4.613866  -0.587412  2.261037
C    -5.611683  0.490787  2.336514
H    -4.924034  -1.469829  1.856133
H    -6.511900  0.096992  2.822199
H    -5.861982  0.816375  1.318912
H    -5.208323  1.328418  2.909018
H    -1.968243  0.520737  3.498954
Hg    1.818184  -0.779946  2.442725
