26
Energy: -572025.063171 eV PBE+vdW (tier 2 basis)
C    -0.879315  -1.108910  -0.219435
C    -0.546414  -0.366404  1.031136
O    0.559428  0.213911  1.141987
H    -1.953124  -1.266256  -0.366571
H    -0.356743  -2.078775  -0.215966
H    -0.473652  -0.548008  -1.071821
N    -1.478532  -0.282857  2.052972
C    -2.247161  -1.450078  2.508583
C    -3.741084  -1.158170  2.589600
O    -4.584450  -2.056075  3.036237
H    -1.152560  0.312503  2.820526
H    -2.121742  -2.247626  1.759849
C    -1.684530  -1.983985  3.881451
C    -0.178338  -1.669115  3.835809
O    0.165303  -0.586535  4.420636
O    0.549526  -2.340535  3.065409
H    -1.822787  -3.067508  3.975145
H    -2.136553  -1.469152  4.735973
N    -4.219827  -0.011470  2.207033
C    -5.630779  0.403387  2.211123
H    -3.526435  0.650502  1.851057
H    -6.253670  -0.390057  2.628649
H    -5.936201  0.619434  1.180037
H    -5.724636  1.314395  2.814193
H    -4.177516  -2.906994  3.286769
Hg    1.958792  -0.372622  2.993618
