26
Energy: -572025.054842 eV PBE+vdW (tier 2 basis)
C    -0.657876  0.743990  -0.252730
C    -0.397556  0.414193  1.177993
O    0.822330  0.086088  1.449038
H    -0.075012  1.634298  -0.530476
H    -1.720609  0.917653  -0.456825
H    -0.294807  -0.080977  -0.882606
N    -1.415513  0.461811  2.051254
C    -1.401832  0.083812  3.467410
C    -2.772653  -0.340343  4.113900
O    -2.954589  0.029158  5.287155
H    -2.292352  0.815209  1.671017
H    -0.781732  -0.829231  3.548055
C    -0.836261  1.227095  4.369275
C    -0.074516  0.632884  5.540355
O    -0.703644  0.316580  6.607151
O    1.180157  0.372413  5.473513
H    -1.665824  1.845429  4.733187
H    -0.168938  1.897055  3.806980
N    -3.646510  -1.098135  3.451504
C    -3.541561  -1.763536  2.150158
H    -4.486305  -1.298817  3.997740
H    -3.971017  -1.152670  1.344529
H    -4.110968  -2.697311  2.203139
H    -2.504350  -2.025544  1.917291
H    -1.703341  0.358502  6.394749
Hg    1.635868  0.155713  3.400706
