26
Energy: -572024.932359 eV PBE+vdW (tier 2 basis)
C    -1.418251  -1.802526  2.129087
C    -0.285546  -0.850861  2.005655
O    0.841503  -1.294734  1.595375
H    -1.077080  -2.648263  2.749570
H    -1.666543  -2.232345  1.148055
H    -2.296740  -1.354054  2.603999
N    -0.396366  0.459980  2.346490
C    -1.459951  1.374582  1.947129
C    -0.967469  2.156654  0.685437
O    0.245719  2.123518  0.238211
H    0.491994  0.910527  2.577241
H    -2.319341  0.769018  1.623432
C    -1.893402  2.274854  3.131166
C    -3.272405  2.899462  2.970269
O    -3.809081  3.198422  4.138215
O    -3.814776  3.105118  1.886418
H    -1.174311  3.092078  3.302354
H    -1.894468  1.666903  4.045358
N    -1.839836  2.947871  0.107594
C    -1.628990  3.732029  -1.103537
H    -2.739087  3.079202  0.658308
H    -1.288319  4.744232  -0.837702
H    -2.590512  3.819323  -1.621984
H    -0.881056  3.258700  -1.745464
H    -4.677205  3.640243  4.011142
Hg    1.627005  0.369362  0.285161
