26
Energy: -572025.338328 eV PBE+vdW (tier 2 basis)
C    0.274494  -0.616633  -0.169580
C    0.222472  -0.023036  1.202237
O    0.530302  1.216443  1.277776
H    1.225803  -0.356559  -0.649439
H    -0.528564  -0.164382  -0.772657
H    0.137308  -1.704358  -0.158386
N    -0.146087  -0.809028  2.232473
C    -0.664540  -0.401555  3.552404
C    0.433369  -0.365190  4.650494
O    1.124056  0.703663  4.872065
H    -0.302609  -1.783312  1.978934
H    -1.016784  0.640101  3.475312
C    -1.906428  -1.223270  3.925229
C    -2.507364  -0.630491  5.198410
O    -3.639399  -1.233245  5.537493
O    -1.964181  0.287013  5.788050
H    -1.698108  -2.296857  4.066114
H    -2.644004  -1.171050  3.111071
N    0.705896  -1.438746  5.356330
C    1.713556  -1.503678  6.425081
H    0.100634  -2.249138  5.243211
H    2.589920  -0.913511  6.140923
H    1.995045  -2.550564  6.568115
H    1.292342  -1.103476  7.356890
H    -4.005874  -0.823620  6.350464
Hg    0.993744  2.088480  3.222988
