26
Energy: -572024.723557 eV PBE+vdW (tier 2 basis)
C    0.509694  -0.509780  0.577997
C    -0.021172  -0.576725  1.969161
O    0.439318  -1.285758  2.865508
H    1.065742  -1.423036  0.344328
H    1.214187  0.337763  0.529956
H    -0.276521  -0.339384  -0.167993
N    -1.123207  0.226720  2.289204
C    -1.584075  0.355390  3.641887
C    -2.571200  -0.793552  4.092543
O    -3.668389  -0.479231  4.622540
H    -1.695097  0.589268  1.526190
H    -0.697424  0.190540  4.278830
C    -2.165175  1.762468  3.884236
C    -2.865191  1.871626  5.230789
O    -3.969169  2.576237  5.356301
O    -2.405506  1.282384  6.225612
H    -2.864888  2.057221  3.088586
H    -1.333004  2.484044  3.862945
N    -2.135559  -2.036245  3.930092
C    -2.813209  -3.205474  4.472027
H    -1.186105  -2.147529  3.546130
H    -2.468037  -4.092477  3.931733
H    -3.896889  -3.082998  4.362524
H    -2.573114  -3.340486  5.540926
H    -4.252363  3.030410  4.537832
Hg    -3.986465  -0.272100  7.041294
