26
Energy: -572025.222965 eV PBE+vdW (tier 2 basis)
C    0.744330  -1.186720  1.333831
C    0.168828  0.158095  1.621589
O    1.031441  1.072523  1.911292
H    1.393710  -1.483252  2.170564
H    1.386507  -1.122687  0.443369
H    -0.025920  -1.951768  1.183802
N    -1.166629  0.316653  1.578076
C    -1.938619  1.514718  1.916617
C    -3.417226  1.285275  2.378184
O    -4.215682  2.218182  2.164319
H    -1.681855  -0.480415  1.204011
H    -1.457260  1.953253  2.810688
C    -1.992353  2.558377  0.754037
C    -1.978585  3.957805  1.348017
O    -3.070350  4.463177  1.764151
O    -0.884471  4.613954  1.520011
H    -2.906669  2.411797  0.165380
H    -1.150478  2.440910  0.056879
N    -3.739986  0.152014  2.990944
C    -5.089174  -0.126822  3.509107
H    -3.009144  -0.516724  3.217954
H    -5.291676  -1.196909  3.403677
H    -5.818731  0.448798  2.933663
H    -5.152734  0.157798  4.567024
H    -3.763028  3.679317  1.812704
Hg    0.635545  3.145745  1.751069
