26
Energy: -572024.616102 eV PBE+vdW (tier 2 basis)
C    -0.370567  -1.183727  -0.008035
C    -0.428802  -0.178019  1.089714
O    0.569674  0.569490  1.408055
H    0.565090  -1.752452  0.067389
H    -0.373048  -0.660460  -0.978405
H    -1.222586  -1.871542  0.000764
N    -1.548543  -0.044991  1.795732
C    -1.812980  0.925514  2.859996
C    -3.093109  0.368992  3.547140
O    -3.792105  -0.421680  2.910281
H    -2.341964  -0.690404  1.656157
H    -0.956247  0.953565  3.546557
C    -2.135297  2.361084  2.313464
C    -0.953443  2.949915  1.569124
O    -0.028325  3.650226  2.203779
O    -0.796385  2.703753  0.363534
H    -2.419841  3.008790  3.154101
H    -2.985791  2.306503  1.621623
N    -3.441821  0.772892  4.792244
C    -2.683582  1.506493  5.786478
H    -4.332938  0.370981  5.097441
H    -2.498584  0.868855  6.664944
H    -3.266810  2.375363  6.129415
H    -1.721435  1.843191  5.391725
H    -0.256303  3.862913  3.129614
Hg    1.418774  1.960400  -0.163291
