26
Energy: -572025.244697 eV PBE+vdW (tier 2 basis)
C    -0.300278  -0.973812  -0.198433
C    -0.690314  -0.791167  1.235813
O    -0.674959  -1.858156  1.946237
H    -1.213092  -0.961630  -0.815163
H    0.219259  -1.925637  -0.336919
H    0.345456  -0.148058  -0.531990
N    -1.013616  0.449263  1.645298
C    -1.942392  0.964248  2.697650
C    -1.287983  1.244315  4.070529
O    -1.002808  0.338623  4.945004
H    -0.915785  1.128220  0.891336
H    -2.220980  1.946678  2.292875
C    -3.265046  0.191506  2.809894
C    -4.068960  0.325801  1.503697
O    -5.214396  -0.342337  1.597075
O    -3.673217  0.965152  0.551740
H    -3.867449  0.607547  3.631931
H    -3.163702  -0.884743  3.025475
N    -1.080258  2.503393  4.394792
C    -0.521114  2.964008  5.672503
H    -1.382656  3.221005  3.737752
H    -0.012425  3.917145  5.500011
H    0.184259  2.220570  6.054843
H    -1.328578  3.108969  6.402654
H    -5.735050  -0.227129  0.773158
Hg    -0.855917  -1.632776  4.083237
