26
Energy: -572025.096298 eV PBE+vdW (tier 2 basis)
C    -0.209593  -0.292580  0.333200
C    -0.387734  -0.644137  1.777820
O    0.584736  -0.390557  2.552376
H    0.293029  0.678183  0.252329
H    -1.156863  -0.268843  -0.217906
H    0.450729  -1.045364  -0.124205
N    -1.557873  -1.204743  2.143714
C    -1.986871  -1.768996  3.433642
C    -2.020153  -0.710276  4.563232
O    -1.099110  -0.578709  5.445702
H    -2.199879  -1.369996  1.372271
H    -3.040978  -2.020242  3.267355
C    -1.313903  -3.124874  3.857647
C    0.022772  -3.458382  3.223711
O    1.105238  -3.279148  4.122610
O    0.210067  -3.846776  2.110872
H    -1.976869  -3.931253  3.518266
H    -1.261848  -3.191039  4.951290
N    -3.091832  0.053924  4.686208
C    -4.356426  0.004460  3.939755
H    -3.038036  0.726006  5.455854
H    -4.993364  0.810902  4.313736
H    -4.879374  -0.946793  4.106369
H    -4.186224  0.168857  2.869287
H    1.918641  -3.614211  3.677985
Hg    0.944720  -0.934410  4.710879
