26
Energy: -572025.506752 eV PBE+vdW (tier 2 basis)
C    -0.513430  -2.324991  1.620181
C    -0.385550  -0.911464  2.098160
O    0.694271  -0.303119  1.861835
H    -0.224949  -2.367061  0.561476
H    -1.520494  -2.738987  1.740377
H    0.206776  -2.947663  2.170072
N    -1.455449  -0.374689  2.735284
C    -1.719309  0.990364  3.226002
C    -1.212788  2.114421  2.278897
O    -0.118474  2.740876  2.449654
H    -2.247385  -1.007558  2.818938
H    -2.813844  1.068124  3.178584
C    -1.407765  1.264515  4.743422
C    -0.293881  0.492555  5.435372
O    -0.552152  -0.136773  6.557391
O    0.888922  0.429257  5.050052
H    -2.340967  1.106147  5.297540
H    -1.164152  2.332747  4.868857
N    -2.029772  2.471252  1.300659
C    -1.741218  3.517290  0.314819
H    -2.953855  2.045131  1.259390
H    -2.203003  3.234242  -0.636566
H    -0.659116  3.622243  0.200236
H    -2.163175  4.474401  0.650377
H    -1.478202  -0.056204  6.858466
Hg    1.537761  1.386512  3.107086
