18
Energy: -31948.4859038 eV PBE+vdW (tier 2 basis)
N    -0.064165  1.134718  0.779896
C    -0.563214  -0.115574  1.258779
C    0.337308  -0.914433  2.224205
O    -0.074265  -1.886506  2.905750
H    -0.025095  1.866136  1.486790
H    -3.063890  -1.082560  -1.540973
H    -1.475113  0.089895  1.844975
C    -0.962031  -1.019878  0.031736
C    -2.244439  -1.793969  0.194950
O    -2.434139  -2.556443  1.205134
N    -3.177963  -1.685730  -0.730421
H    -0.166812  -1.742217  -0.212096
H    -1.036620  -0.331745  -0.818869
H    0.829409  1.083367  0.292517
H    -4.040721  -2.223728  -0.661046
O    1.568385  -0.494495  2.297639
H    2.100883  -1.022133  2.933520
Ca    -1.733518  -3.274708  3.048512
