18
Energy: -31948.652284 eV PBE+vdW (tier 2 basis)
N    0.282524  -1.312973  -0.423987
C    0.310961  -0.838496  0.975215
C    1.687528  -0.921749  1.642713
O    1.809693  -0.601424  2.876495
H    0.670547  -0.628858  -1.077008
H    0.801710  -2.186376  -0.551237
H    0.056855  0.234483  0.963343
C    -0.775583  -1.577832  1.800002
C    -2.123518  -1.554124  1.099346
O    -2.175072  -1.555750  -0.176228
N    -3.239352  -1.570161  1.799632
H    -0.844589  -1.143662  2.803934
H    -0.502689  -2.639281  1.923684
H    -3.244262  -1.563112  2.814536
H    -4.136708  -1.610096  1.316835
O    2.710106  -1.278854  0.960803
H    -1.097924  -1.489867  -0.532845
Ca    3.975772  -0.889867  2.720768
