18
Energy: -31948.7142193 eV PBE+vdW (tier 2 basis)
N    -0.523516  0.429335  -0.086355
C    0.036437  0.076012  1.256402
C    1.556384  -0.104362  1.215999
O    2.276534  -0.149361  2.159005
H    -0.309038  1.415951  -0.275117
H    -1.547972  0.402632  -0.025592
H    -0.121941  0.901036  1.968637
C    -0.636337  -1.162870  1.886600
C    -0.475187  -2.467756  1.124363
O    -0.116568  -2.472723  -0.096181
N    -0.739145  -3.597326  1.753109
H    -1.715218  -0.964563  2.001729
H    -0.247611  -1.276743  2.908843
H    -1.014268  -3.623463  2.731922
H    -0.678589  -4.486262  1.258326
O    2.056870  -0.242048  -0.113247
H    3.035551  -0.278335  -0.031539
Ca    0.501489  -1.135029  -1.637262
