18
Energy: -31947.4986865 eV PBE+vdW (tier 2 basis)
N    1.041932  -0.236700  0.376726
C    0.088599  -0.475819  1.430646
C    0.004679  0.775586  2.306384
O    -0.675858  1.734384  2.178061
H    0.739420  0.435623  -0.325890
H    2.000762  -0.060205  0.671286
H    -0.909958  -0.543395  0.974440
C    0.425292  -1.822216  2.121053
C    -0.481052  -2.181615  3.265616
O    -0.397328  -1.527973  4.367579
N    -1.362031  -3.151386  3.140225
H    1.455938  -1.793707  2.505694
H    0.402747  -2.582781  1.330706
H    -1.441151  -3.695445  2.284244
H    -1.978899  -3.398898  3.913532
O    1.104729  0.850675  3.384779
H    1.418059  1.778062  3.320928
Ca    0.569119  -0.009189  5.418990
