18
Energy: -31949.0741713 eV PBE+vdW (tier 2 basis)
N    -0.025738  -0.142012  -0.223592
C    0.245575  0.275483  1.211785
C    1.709468  -0.073767  1.507376
O    2.114990  -1.202229  1.073224
H    0.481210  -1.034593  -0.386731
H    -1.026663  -0.271807  -0.431070
H    0.066068  1.352563  1.297465
C    -0.676361  -0.546505  2.157161
C    -0.178247  -0.709964  3.600252
O    0.931477  -1.253038  3.848085
N    -0.990734  -0.324457  4.573365
H    -0.746145  -1.578977  1.776440
H    -1.686494  -0.117924  2.141535
H    -1.897578  0.097983  4.399525
H    -0.727016  -0.484496  5.544456
O    2.348044  0.640904  2.323133
H    0.342289  0.551335  -0.892667
Ca    3.048854  -1.324498  3.177258
