18
Energy: -31946.8613782 eV PBE+vdW (tier 2 basis)
N    -0.965067  0.311695  0.412975
C    -0.535216  -0.078826  1.728580
C    0.983799  -0.326371  1.809571
O    1.707590  -0.467813  0.865318
H    -0.985460  1.323092  0.297533
H    -0.357160  -0.076148  -0.311797
H    -0.795913  0.712276  2.446794
C    -1.331166  -1.387073  2.122446
C    -1.636385  -1.632740  3.563231
O    -2.792833  -2.159092  3.881885
N    -0.788397  -1.323309  4.510781
H    -0.806147  -2.274495  1.727613
H    -2.280150  -1.324665  1.574578
H    0.139351  -0.936878  4.252827
H    -1.004385  -1.484284  5.492257
O    1.418196  -0.387152  3.117411
H    2.387698  -0.535133  3.110792
Ca    -4.607355  -2.988084  4.037205
