18
Energy: -31948.1717311 eV PBE+vdW (tier 2 basis)
N    -0.703620  -1.509087  0.772548
C    -0.163163  -0.876129  2.029295
C    0.537123  0.487679  1.778298
O    1.365448  0.939113  2.522510
H    0.099464  -1.755265  0.177434
H    -1.153231  -0.749403  0.240877
H    -1.032360  -0.627417  2.662098
C    0.787574  -1.791295  2.812607
C    0.118232  -2.952107  3.503264
O    -0.889038  -3.532192  2.962314
N    0.590503  -3.384902  4.652822
H    1.330952  -1.161680  3.530591
H    1.562877  -2.206283  2.143711
H    1.378269  -2.934575  5.113290
H    0.179592  -4.198635  5.109443
O    0.040485  1.070495  0.669723
H    0.452985  1.953295  0.557297
Ca    -2.099094  -3.412613  1.263879
