18
Energy: -31948.6794954 eV PBE+vdW (tier 2 basis)
N    2.211603  -5.013622  -0.697868
C    1.955413  -5.374885  0.693312
C    2.967945  -6.491202  1.030694
O    2.908497  -7.196250  2.067482
H    1.582219  -5.442808  -1.376510
H    2.241246  -4.008176  -0.862910
H    2.272983  -4.525099  1.321134
C    0.485982  -5.673379  1.120541
C    -0.091625  -7.013223  0.709297
O    0.290823  -8.088102  1.276577
N    -1.015697  -7.056550  -0.236657
H    -0.136807  -4.848545  0.751812
H    0.430677  -5.632463  2.217856
H    -1.392010  -6.215268  -0.664813
H    -1.443582  -7.945331  -0.495061
O    3.902679  -6.639158  0.160428
H    3.630570  -5.950756  -0.568206
Ca    1.738087  -8.869183  2.652891
