18
Energy: -31948.6453075 eV PBE+vdW (tier 2 basis)
N    -0.102605  0.374409  0.095125
C    0.017327  0.047941  1.556877
C    1.361508  -0.654740  1.777256
O    2.308112  -0.476615  0.930274
H    -0.777753  1.125229  -0.086216
H    0.807821  0.629041  -0.308499
H    0.071986  0.980519  2.141035
C    -1.204478  -0.769658  2.009696
C    -1.479205  -1.953650  1.079971
O    -0.985087  -1.971722  -0.074060
N    -2.266233  -2.928984  1.527427
H    -2.093394  -0.119815  2.023445
H    -1.048461  -1.101246  3.043888
H    -2.679312  -2.918298  2.453913
H    -2.532246  -3.680789  0.894979
O    1.548205  -1.360376  2.822340
H    -0.465644  -0.609510  -0.300218
Ca    3.636253  -1.689565  2.211340
