18
Energy: -31948.3954347 eV PBE+vdW (tier 2 basis)
N    0.208753  0.887292  0.746482
C    -0.537776  -0.194552  1.333904
C    0.293890  -0.934929  2.375447
O    -0.154313  -1.896808  3.047157
H    0.690937  1.471226  1.428670
H    -3.029552  -1.268182  -1.469620
H    -1.453800  0.100583  1.897497
C    -0.973856  -1.158315  0.168295
C    -2.291020  -1.872828  0.343522
O    -2.539290  -2.558700  1.393060
N    -3.191100  -1.800062  -0.618508
H    -0.198829  -1.920836  -0.006793
H    -0.989775  -0.547855  -0.742218
H    -0.380414  1.491644  0.174908
H    -4.070814  -2.309132  -0.542181
O    1.501387  -0.481365  2.546256
H    1.985155  -0.974448  3.245531
Ca    -1.850584  -3.223732  3.261592
