18
Energy: -31947.5181303 eV PBE+vdW (tier 2 basis)
N    0.020731  0.888470  0.458805
C    0.220436  0.252600  1.718353
C    1.733752  0.193065  1.979849
O    2.618241  -0.016364  1.225305
H    0.459428  1.799723  0.346328
H    -0.945751  0.913527  0.141244
H    -0.242594  0.784859  2.603969
C    -0.388755  -1.171501  1.638653
C    -0.443642  -1.964701  2.921768
O    -0.274657  -1.400462  4.058190
N    -0.697880  -3.255873  2.858166
H    0.135293  -1.737440  0.854725
H    -1.428752  -1.060542  1.286664
H    -0.835206  -3.734112  1.970386
H    -0.791658  -3.809099  3.708877
O    2.040336  0.459846  3.387776
H    3.022494  0.475389  3.423969
Ca    0.520186  0.231616  5.087972
