18
Energy: -31947.2615611 eV PBE+vdW (tier 2 basis)
N    -0.148634  0.187371  -0.138264
C    -0.013459  -0.247940  1.263926
C    1.350729  -0.003355  1.945181
O    1.777978  -0.715526  2.823697
H    0.654681  -0.102408  -0.702560
H    -0.189360  1.206751  -0.198546
H    -0.739763  0.342465  1.847281
C    -0.368738  -1.744949  1.429504
C    -1.696918  -2.147223  0.854833
O    -2.318121  -3.193399  1.349049
N    -2.175940  -1.462013  -0.138819
H    -0.326876  -2.005889  2.493423
H    0.399955  -2.371917  0.942824
H    -1.507666  -0.637478  -0.440093
H    -3.063111  -1.691563  -0.583925
O    1.943450  1.095001  1.452338
H    2.781836  1.243866  1.937508
Ca    -3.057043  -4.809795  2.250644
