18
Energy: -31948.4464804 eV PBE+vdW (tier 2 basis)
N    0.683256  -0.055387  0.177692
C    -0.010623  0.036179  1.452541
C    0.933082  0.223372  2.630210
O    0.797143  -0.326455  3.747558
H    0.153740  0.412800  -0.558811
H    1.607712  0.374277  0.191807
H    -0.642331  0.949520  1.529278
C    -1.000823  -1.154435  1.617888
C    -0.330250  -2.499203  1.759982
O    -0.129619  -2.991007  2.927213
N    0.069219  -3.145497  0.685860
H    -1.647357  -1.142733  0.730773
H    -1.658459  -0.997337  2.482676
H    -0.022634  -2.730618  -0.238491
H    0.531050  -4.050584  0.763990
O    1.900865  1.070094  2.387430
H    2.455629  1.237715  3.180311
Ca    0.269400  -2.166700  4.814094
