18
Energy: -31949.1055367 eV PBE+vdW (tier 2 basis)
N    2.306523  -5.539231  -0.880838
C    1.725465  -5.337877  0.509557
C    2.530051  -6.256772  1.441951
O    2.317383  -6.186653  2.680320
H    2.820853  -6.451438  -0.829185
H    1.606211  -5.559166  -1.633004
H    1.855258  -4.284538  0.783578
C    0.223292  -5.689741  0.613666
C    -0.172518  -7.171867  0.666530
O    0.471129  -8.018726  1.343025
N    -1.275680  -7.520381  0.014543
H    -0.341967  -5.155865  -0.163016
H    -0.113510  -5.261192  1.571881
H    -1.842519  -6.855370  -0.503084
H    -1.634005  -8.470249  0.102315
O    3.202510  -7.190735  0.888693
H    2.992389  -4.807188  -1.114659
Ca    2.270137  -8.428011  2.596729
