35
Energy: -36758.3168585 eV PBE+vdW (tier 2 basis)
C    -0.156131  0.471190  0.944137
C    -0.190076  -0.304718  2.208996
O    0.813045  -0.181399  3.046888
H    -0.176159  1.545479  1.182467
H    -0.977501  0.222975  0.264805
H    0.792121  0.270134  0.425161
N    -1.171607  -1.117603  2.553992
C    -2.460269  -1.454640  1.870553
C    -2.194392  -2.072997  0.458753
O    -2.275327  -1.353265  -0.538077
H    -1.042557  -1.574817  3.457264
H    -2.891989  -2.222170  2.526169
C    -3.429177  -0.260063  1.793896
C    -4.920976  -0.654848  1.719489
C    -5.424319  -1.413332  0.474700
C    -5.488507  -0.639015  -0.840870
N    -6.730953  0.245927  -0.927981
H    -3.143445  0.369671  0.940523
H    -3.300435  0.343612  2.703269
H    -5.500889  0.271605  1.862356
H    -5.169749  -1.266199  2.599997
H    -6.419796  -1.830010  0.698444
H    -4.803736  -2.297667  0.276768
H    -5.557116  -1.317939  -1.698370
H    -4.624126  0.016184  -0.999515
H    -7.593400  -0.316297  -0.874833
H    -6.760350  0.762721  -1.819207
H    -6.772651  0.940623  -0.169696
N    -1.899148  -3.387475  0.407089
C    -1.811981  -4.353944  1.501458
H    -1.738534  -3.734145  -0.537417
H    -2.767291  -4.467101  2.031474
H    -1.558385  -5.328553  1.074323
H    -1.019116  -4.096702  2.217498
Ca    2.523709  0.282496  4.018518
