35
Energy: -36758.4999426 eV PBE+vdW (tier 2 basis)
C    0.218223  0.282730  0.598710
C    -0.306161  0.042659  1.971899
O    0.518208  0.262162  2.966619
H    -0.480328  0.008285  -0.190637
H    1.147145  -0.277858  0.448308
H    0.440024  1.358533  0.507577
N    -1.599631  -0.112498  2.281904
C    -2.515004  -0.997969  1.545964
C    -1.718641  -2.350577  1.411323
O    -0.482875  -2.307483  1.466489
H    -1.772816  -0.093691  3.286562
H    -3.374948  -1.132986  2.217265
C    -3.041196  -0.446233  0.190663
C    -4.416562  -1.007186  -0.221664
C    -4.869378  -0.545364  -1.626478
C    -5.599122  0.795316  -1.727684
N    -7.102203  0.659118  -1.491029
H    -2.326595  -0.675611  -0.611647
H    -3.087448  0.649490  0.277634
H    -5.170084  -0.755876  0.544359
H    -4.369031  -2.104497  -0.249421
H    -5.490663  -1.327169  -2.090973
H    -3.991301  -0.473609  -2.284672
H    -5.507143  1.224343  -2.732200
H    -5.244712  1.540633  -1.004792
H    -7.576762  1.572026  -1.560739
H    -7.322483  0.269273  -0.564131
H    -7.533285  0.040171  -2.194190
N    -2.434715  -3.462890  1.221579
C    -1.833923  -4.789174  1.040367
H    -3.443850  -3.416988  1.314731
H    -2.463570  -5.377929  0.365966
H    -1.748644  -5.312125  2.001550
H    -0.838864  -4.673632  0.602681
Ca    2.160919  0.300935  4.121938
