35
Energy: -36758.6649848 eV PBE+vdW (tier 2 basis)
C    -0.020275  0.443383  0.119107
C    0.001367  0.348904  1.605575
O    1.125475  0.575537  2.235780
H    0.923433  0.065868  -0.291601
H    -0.110947  1.500337  -0.179681
H    -0.844817  -0.111669  -0.337219
N    -1.071930  0.063377  2.314856
C    -2.452759  -0.205884  1.833003
C    -3.419538  0.393240  2.893555
O    -3.566716  -0.216584  3.969800
H    -0.952038  -0.008025  3.329286
H    -2.577754  0.297988  0.866578
C    -2.714089  -1.716617  1.717664
C    -4.154349  -2.032618  1.248071
C    -4.791266  -3.285732  1.886917
C    -5.688702  -3.052642  3.099259
N    -4.948469  -2.616418  4.355127
H    -2.510913  -2.156725  2.704554
H    -1.983130  -2.160587  1.027672
H    -4.144030  -2.161427  0.158618
H    -4.817492  -1.170385  1.426107
H    -4.027373  -4.047102  2.112282
H    -5.449337  -3.761203  1.145712
H    -6.223829  -3.972273  3.364753
H    -6.436022  -2.273066  2.903332
H    -4.420041  -1.713711  4.223374
H    -5.610212  -2.479242  5.131189
H    -4.282967  -3.339013  4.657858
N    -4.029307  1.537823  2.577633
C    -4.982775  2.232023  3.447563
H    -3.863534  1.939159  1.658751
H    -4.747381  3.301819  3.462926
H    -4.903771  1.823931  4.458268
H    -6.006147  2.100694  3.073280
Ca    3.026135  1.021673  2.790023
