35
Energy: -36758.4789358 eV PBE+vdW (tier 2 basis)
C    -0.465772  -1.008026  1.382249
C    -0.603639  -0.037601  2.497051
O    0.359488  0.023855  3.388904
H    0.325970  -0.659017  0.700550
H    -1.404667  -1.160125  0.841642
H    -0.146627  -1.977481  1.788048
N    -1.622209  0.787818  2.661814
C    -2.873337  1.020273  1.866355
C    -3.776316  -0.248356  1.923253
O    -3.506582  -1.212625  1.209761
H    -1.540523  1.383308  3.486235
H    -3.353691  1.850140  2.403404
C    -2.574595  1.473525  0.424786
C    -3.767663  2.059083  -0.364876
C    -4.803988  1.038724  -0.884420
C    -5.497109  1.414576  -2.190981
N    -6.432999  2.617513  -2.075200
H    -2.158383  0.630702  -0.142793
H    -1.796317  2.248037  0.478152
H    -3.314782  2.573684  -1.227119
H    -4.253772  2.847016  0.233758
H    -5.556234  0.795325  -0.117888
H    -4.304000  0.083061  -1.102909
H    -6.123391  0.592021  -2.556262
H    -4.778071  1.674819  -2.978313
H    -6.883142  2.819362  -2.980793
H    -5.935916  3.471735  -1.787778
H    -7.186523  2.448606  -1.393666
N    -4.827885  -0.173175  2.764673
C    -5.777722  -1.270434  2.956408
H    -4.952799  0.662070  3.327529
H    -5.656912  -1.715505  3.952042
H    -5.584600  -2.033013  2.196951
H    -6.804200  -0.899384  2.857599
Ca    2.018488  -0.279471  4.497256
