35
Energy: -36757.9855088 eV PBE+vdW (tier 2 basis)
C    -1.037510  -0.700339  -0.679257
C    -0.713808  -0.624401  0.787489
O    0.427051  -0.678288  1.238877
H    -2.026799  -0.306717  -0.940437
H    -0.995786  -1.753843  -0.993604
H    -0.267580  -0.164038  -1.244273
N    -1.812124  -0.480648  1.628954
C    -1.856857  -0.660013  3.075083
C    -2.029488  0.655192  3.852118
O    -2.887852  0.647600  4.850157
H    -2.718726  -0.481234  1.170814
H    -2.819119  -1.161467  3.260381
C    -0.805276  -1.628659  3.712491
C    0.613381  -1.137850  4.081020
C    1.658180  -2.230453  3.777822
C    3.081462  -1.764819  4.069537
N    4.102189  -2.828224  3.683412
H    -0.745894  -2.460502  2.997307
H    -1.278837  -2.053338  4.609654
H    0.653053  -0.864821  5.146446
H    0.881322  -0.250982  3.498781
H    1.570437  -2.484894  2.709947
H    1.434602  -3.139042  4.360115
H    3.251175  -1.555273  5.133034
H    3.347020  -0.871774  3.490019
H    5.065093  -2.515183  3.877683
H    4.050662  -3.054467  2.679088
H    3.955616  -3.706123  4.202937
N    -1.427812  1.787169  3.580590
C    -0.446919  2.126909  2.539919
H    -1.708498  2.572858  4.170039
H    0.246882  2.858732  2.967245
H    -0.966398  2.586391  1.688688
H    0.101996  1.242232  2.207106
Ca    -4.370237  0.654068  6.220530
