35
Energy: -36759.2823982 eV PBE+vdW (tier 2 basis)
C    -0.354762  0.897826  1.082448
C    -0.532316  0.485492  2.505593
O    0.449555  0.576980  3.309723
H    -1.260329  1.333923  0.652460
H    -0.054837  0.035091  0.466053
H    0.461868  1.627716  1.035906
N    -1.719307  0.034288  2.995517
C    -2.509935  -1.065686  2.415562
C    -1.627742  -2.353376  2.513996
O    -0.377861  -2.244563  2.773430
H    -1.710870  0.008602  4.016867
H    -3.344990  -1.207490  3.119842
C    -3.137115  -0.799553  1.022819
C    -4.076329  0.422801  1.049619
C    -4.693467  0.848982  -0.302721
C    -5.889148  0.006106  -0.750004
N    -6.579951  0.627916  -1.957982
H    -3.689397  -1.705080  0.737688
H    -2.354481  -0.679143  0.262212
H    -3.520668  1.290375  1.431636
H    -4.881284  0.254029  1.782768
H    -3.921755  0.855900  -1.089114
H    -5.026449  1.891925  -0.184701
H    -6.657800  -0.057554  0.030692
H    -5.615226  -1.011599  -1.053647
H    -7.391963  0.067265  -2.258637
H    -5.947827  0.707501  -2.768465
H    -6.927840  1.576409  -1.749341
N    -2.160699  -3.553673  2.383048
C    -3.560921  -3.951725  2.203886
H    -1.490428  -4.322184  2.452960
H    -4.241308  -3.173972  2.562480
H    -3.735145  -4.857751  2.794684
H    -3.764640  -4.179849  1.149922
Ca    1.352990  -1.332359  3.719574
