35
Energy: -36759.8987177 eV PBE+vdW (tier 2 basis)
C    0.223082  1.850411  2.126839
C    -0.130062  0.404068  2.242798
O    0.779089  -0.456036  2.471076
H    -0.631080  2.500166  1.909973
H    0.976546  1.966572  1.334437
H    0.698829  2.186545  3.059021
N    -1.420841  0.059827  2.104871
C    -2.084820  -1.262579  2.035105
C    -1.917647  -2.118137  3.303630
O    -0.768059  -2.465829  3.734720
H    -2.047836  0.846396  1.954075
H    -3.148855  -1.003274  1.978054
C    -1.764741  -2.073796  0.748449
C    -2.279072  -1.357104  -0.518877
C    -2.519365  -2.232400  -1.770675
C    -1.262172  -2.639178  -2.538444
N    -1.627434  -3.305556  -3.860236
H    -2.269344  -3.047011  0.857164
H    -0.686616  -2.282008  0.693933
H    -1.617308  -0.516858  -0.777743
H    -3.255157  -0.904776  -0.286759
H    -3.163861  -1.645350  -2.443921
H    -3.096919  -3.128573  -1.492990
H    -0.638955  -3.363180  -1.999491
H    -0.643066  -1.772561  -2.803110
H    -0.787950  -3.583365  -4.391070
H    -2.173045  -2.672684  -4.465341
H    -2.195399  -4.154796  -3.720926
N    -2.999939  -2.546349  3.930244
C    -4.419079  -2.280507  3.645818
H    -2.806882  -3.154908  4.728255
H    -5.009392  -2.744686  4.440906
H    -4.722755  -2.726290  2.690873
H    -4.629685  -1.204486  3.653882
Ca    1.303015  -2.012838  3.807058
