35
Energy: -36758.4211853 eV PBE+vdW (tier 2 basis)
C    -1.215400  1.774110  -0.271128
C    -0.618441  1.000104  0.854480
O    0.618803  1.224841  1.207339
H    -1.195673  1.168732  -1.192847
H    -0.640000  2.685895  -0.457125
H    -2.259846  2.048769  -0.080219
N    -1.309070  0.077964  1.506376
C    -2.649035  -0.450311  1.152263
C    -3.841237  0.144387  1.946013
O    -4.958771  -0.337414  1.717774
H    -0.813106  -0.418990  2.249973
H    -2.838402  -0.153013  0.112134
C    -2.639264  -1.996488  1.180485
C    -2.567359  -2.718102  2.540558
C    -3.861117  -2.905956  3.363926
C    -4.998979  -3.656239  2.645920
N    -6.149168  -2.736732  2.278357
H    -1.792804  -2.320839  0.557888
H    -3.529328  -2.309007  0.617519
H    -1.822014  -2.244690  3.203126
H    -2.154069  -3.717370  2.340728
H    -4.233996  -1.948292  3.755242
H    -3.588852  -3.486966  4.254440
H    -5.421577  -4.448013  3.273246
H    -4.665180  -4.125169  1.712187
H    -5.784305  -1.826531  1.895899
H    -6.781213  -3.172312  1.593895
H    -6.716536  -2.509515  3.105368
N    -3.634477  1.168358  2.782668
C    -4.720274  1.829169  3.517697
H    -2.688521  1.492304  2.944908
H    -4.402514  2.841452  3.783280
H    -4.964616  1.278470  4.435108
H    -5.609195  1.882245  2.881834
Ca    2.566881  1.818774  1.293792
