35
Energy: -36757.880563 eV PBE+vdW (tier 2 basis)
C    0.361592  1.100440  2.548705
C    -0.341521  -0.038583  3.218303
O    0.189826  -1.046118  3.628588
H    -0.307011  1.797421  2.028887
H    1.122657  0.727680  1.851595
H    0.926633  1.654245  3.318335
N    -1.800017  0.116443  3.422592
C    -2.566991  -0.076579  2.123757
C    -3.413325  1.172008  1.849759
O    -3.621873  1.980071  2.828023
H    -2.035062  -0.696793  4.007074
H    -1.840949  -0.194906  1.304817
C    -3.461387  -1.340243  2.219749
C    -2.787581  -2.693937  2.545921
C    -2.047364  -3.440065  1.409220
C    -0.532163  -3.304728  1.259599
N    0.245343  -3.892267  2.432065
H    -4.018858  -1.438784  1.277666
H    -4.227738  -1.145420  2.987878
H    -3.615395  -3.342509  2.862783
H    -2.156693  -2.618511  3.448291
H    -2.472353  -3.158910  0.433420
H    -2.279536  -4.512855  1.497202
H    -0.199381  -3.857399  0.372656
H    -0.177280  -2.272291  1.163008
H    1.245283  -3.988558  2.199487
H    -0.095747  -4.832385  2.683534
H    0.189168  -3.285531  3.265253
N    -3.942371  1.425853  0.674127
C    -3.838988  0.683021  -0.586657
H    -4.528780  2.265165  0.647626
H    -3.687279  1.401664  -1.400039
H    -4.770313  0.132547  -0.774141
H    -2.993901  -0.010494  -0.567841
Ca    -2.700666  2.198297  4.670036
