35
Energy: -36758.7244119 eV PBE+vdW (tier 2 basis)
C    -0.792159  0.743357  0.080188
C    -0.468368  0.486007  1.509726
O    0.776064  0.645727  1.903832
H    -0.178885  0.091156  -0.557616
H    -0.533650  1.781186  -0.174255
H    -1.846226  0.575984  -0.155283
N    -1.347409  0.114438  2.399731
C    -2.808648  -0.073502  2.340618
C    -3.184628  0.183273  3.839286
O    -2.314739  -0.060005  4.684745
H    -1.084079  -0.023495  3.408854
H    -3.258563  0.673723  1.673154
C    -3.126092  -1.532047  1.905342
C    -4.595762  -1.998063  1.956761
C    -5.508818  -1.447327  0.848298
C    -6.968326  -1.901182  0.912568
N    -7.165907  -3.372453  0.557090
H    -2.542227  -2.191274  2.563464
H    -2.727487  -1.676370  0.888843
H    -5.026223  -1.774708  2.944691
H    -4.552301  -3.097490  1.895838
H    -5.093889  -1.675150  -0.147704
H    -5.557489  -0.347944  0.892983
H    -7.587524  -1.344130  0.199655
H    -7.400250  -1.776787  1.913754
H    -8.165141  -3.625805  0.592934
H    -6.671830  -4.003039  1.203715
H    -6.835463  -3.581247  -0.396438
N    -4.422231  0.617420  4.105132
C    -4.898140  0.892579  5.465944
H    -5.008447  0.913519  3.331450
H    -5.945666  0.586671  5.554431
H    -4.813984  1.962087  5.696643
H    -4.288796  0.323642  6.173012
Ca    2.680862  1.000786  2.424073
