35
Energy: -36757.5080504 eV PBE+vdW (tier 2 basis)
C    0.473785  -1.113669  1.041184
C    -0.147550  -0.735666  2.358535
O    0.540531  -0.577189  3.367313
H    0.946147  -2.097535  1.180220
H    1.288254  -0.422552  0.793166
H    -0.215460  -1.182481  0.195797
N    -1.537990  -0.684787  2.492640
C    -2.493949  0.003135  1.608264
C    -2.705094  -0.768971  0.296839
O    -3.274633  -1.943248  0.407045
H    -1.771317  -0.542731  3.476944
H    -3.472328  -0.190180  2.078672
C    -2.361588  1.559009  1.589404
C    -0.950283  2.166003  1.748530
C    -0.601004  2.540283  3.206754
C    0.886706  2.872692  3.437891
N    1.557644  1.858413  4.348538
H    -2.984565  1.914415  2.423062
H    -2.866692  1.954704  0.698792
H    -0.891291  3.076987  1.136511
H    -0.180114  1.494696  1.339258
H    -0.899850  1.732988  3.892317
H    -1.207032  3.407375  3.500757
H    1.461466  2.870184  2.503784
H    1.025923  3.852111  3.907667
H    1.220263  1.946370  5.316827
H    2.577744  1.994868  4.375243
H    1.353418  0.880718  4.033104
N    -2.451151  -0.337760  -0.917680
C    -1.746237  0.857197  -1.405979
H    -2.782767  -0.957615  -1.659668
H    -1.004725  1.198254  -0.683313
H    -2.464544  1.657280  -1.627538
H    -1.237159  0.579235  -2.335342
Ca    -4.178620  -3.731542  0.719759
