35
Energy: -36758.6597216 eV PBE+vdW (tier 2 basis)
C    0.117220  0.660989  0.226099
C    -0.218236  0.548320  1.671589
O    0.501808  1.233019  2.532361
H    0.053191  1.713210  -0.085482
H    -0.539379  0.064843  -0.412579
H    1.155566  0.337674  0.064902
N    -1.189800  -0.189165  2.137065
C    -2.214419  -1.019002  1.475458
C    -3.338413  -1.004341  2.562490
O    -2.983915  -0.867045  3.738608
H    -1.409169  -0.220091  3.163044
H    -2.541503  -0.543554  0.540775
C    -1.646626  -2.446833  1.248850
C    -2.590360  -3.547363  0.723174
C    -3.060972  -3.395682  -0.737713
C    -3.316364  -4.705288  -1.484182
N    -4.476884  -5.525219  -0.925401
H    -1.246559  -2.785971  2.215375
H    -0.784820  -2.361457  0.568375
H    -3.448549  -3.653603  1.404395
H    -2.012559  -4.480934  0.816096
H    -2.277412  -2.900943  -1.333225
H    -3.945070  -2.742956  -0.819156
H    -2.442642  -5.368399  -1.447693
H    -3.565364  -4.522301  -2.536237
H    -4.599481  -6.395963  -1.464862
H    -5.368730  -5.012392  -0.975616
H    -4.325113  -5.797666  0.055922
N    -4.602832  -1.174305  2.153534
C    -5.739005  -1.162753  3.083217
H    -4.801749  -1.111380  1.160565
H    -6.559115  -1.747020  2.655168
H    -6.085027  -0.137405  3.266293
H    -5.427808  -1.607058  4.032856
Ca    1.625962  2.374850  3.741472
