35
Energy: -36759.3955867 eV PBE+vdW (tier 2 basis)
C    -3.278115  -1.874553  -1.181894
C    -2.017424  -1.083477  -1.082037
O    -1.258649  -0.955482  -2.093658
H    -4.106171  -1.394451  -0.649814
H    -3.137705  -2.880950  -0.754122
H    -3.540917  -1.997668  -2.237720
N    -1.642880  -0.486723  0.081297
C    -1.595481  -1.180325  1.381103
C    -0.725677  -2.468407  1.183225
O    -0.067833  -2.627894  0.099984
H    -0.868042  0.162879  -0.055432
H    -0.981482  -0.519590  2.014696
C    -2.950282  -1.360243  2.112097
C    -3.714025  -0.027269  2.238565
C    -5.097888  -0.089683  2.926035
C    -5.047328  -0.122702  4.454748
N    -6.437503  0.050110  5.054966
H    -2.731700  -1.759480  3.115083
H    -3.568493  -2.116369  1.608791
H    -3.878094  0.378217  1.230837
H    -3.082731  0.716332  2.750729
H    -5.673230  -0.949800  2.547860
H    -5.647472  0.812256  2.614832
H    -4.444417  0.699338  4.861080
H    -4.663650  -1.067658  4.858279
H    -6.407665  0.035057  6.085995
H    -7.084270  -0.695700  4.757803
H    -6.861489  0.948667  4.777563
N    -0.640085  -3.345751  2.161313
C    0.213119  -4.544229  2.142855
H    -1.175319  -3.171645  3.007660
H    0.064513  -5.085845  3.080375
H    1.267720  -4.256905  2.056258
H    -0.063769  -5.193510  1.304503
Ca    0.532554  -2.148698  -1.933737
