35
Energy: -36758.6724474 eV PBE+vdW (tier 2 basis)
C    0.090472  0.732254  0.254726
C    0.116311  0.262268  1.670703
O    1.293187  0.013208  2.190733
H    0.520302  1.746848  0.230935
H    -0.912860  0.776681  -0.170783
H    0.702796  0.078270  -0.374289
N    -0.908495  0.424963  2.532601
C    -2.256130  -0.071377  2.212582
C    -2.003958  -1.442291  1.483643
O    -0.846192  -1.701666  1.108362
H    -0.635008  0.250991  3.498774
H    -2.721050  -0.278433  3.188117
C    -3.194817  0.896919  1.454806
C    -3.463042  2.195644  2.234277
C    -4.376542  3.226866  1.534693
C    -5.860965  2.863161  1.551849
N    -6.712577  4.005875  1.010904
H    -4.132423  0.348819  1.276695
H    -2.794627  1.127196  0.457795
H    -2.503894  2.697728  2.423531
H    -3.875586  1.957703  3.228099
H    -4.040267  3.385045  0.497316
H    -4.243292  4.187139  2.057144
H    -6.225569  2.675955  2.569884
H    -6.101991  1.992652  0.929806
H    -6.467931  4.240249  0.037502
H    -6.592533  4.863995  1.569912
H    -7.716327  3.770235  1.026200
N    -3.046679  -2.252606  1.314251
C    -2.959408  -3.566714  0.667106
H    -3.937206  -1.997520  1.729322
H    -2.729454  -4.347676  1.403114
H    -2.173165  -3.542276  -0.092423
H    -3.919154  -3.791776  0.192410
Ca    3.129496  -0.741496  2.472150
