35
Energy: -36758.1483105 eV PBE+vdW (tier 2 basis)
C    -2.384987  -1.375511  0.154521
C    -1.609113  -0.999970  1.383910
O    -0.392078  -1.110513  1.494743
H    -3.446837  -1.109490  0.198127
H    -2.296495  -2.460621  0.003973
H    -1.925004  -0.903087  -0.721893
N    -2.354324  -0.516651  2.461941
C    -1.658999  -0.090509  3.664347
C    -2.281592  -0.792988  4.864425
O    -2.957974  -0.132203  5.775243
H    -3.338637  -0.303925  2.330429
H    -0.654690  -0.538422  3.532735
C    -1.480911  1.434836  3.804237
C    -0.666077  2.062369  2.648159
C    0.833568  1.709279  2.653399
C    1.582853  1.954032  1.346832
N    1.791030  3.430903  1.014356
H    -2.467476  1.923151  3.833156
H    -0.980264  1.649536  4.762518
H    -0.805766  3.152087  2.714232
H    -1.118067  1.756236  1.692381
H    0.962514  0.629485  2.816004
H    1.351902  2.207184  3.488747
H    1.060121  1.517315  0.486664
H    2.589774  1.522539  1.388142
H    0.903296  3.936430  0.890906
H    2.323737  3.536501  0.137583
H    2.325378  3.913192  1.751601
N    -2.165730  -2.095644  5.005611
C    -1.474119  -3.058328  4.137154
H    -2.656104  -2.505214  5.801463
H    -1.092042  -3.867554  4.767591
H    -0.643448  -2.586947  3.604453
H    -2.183890  -3.473463  3.409481
Ca    -3.983136  0.777348  7.254434
