35
Energy: -36757.7018093 eV PBE+vdW (tier 2 basis)
C    0.394350  -0.394860  0.971437
C    -0.104570  0.174910  2.265529
O    0.663295  0.548067  3.156574
H    -0.337923  -0.967936  0.393101
H    1.278551  -1.014411  1.155546
H    0.731039  0.451181  0.350830
N    -1.474037  0.387610  2.455116
C    -2.509078  -0.604686  2.172441
C    -3.790298  0.087281  1.666529
O    -4.955182  -0.195059  2.189858
H    -1.621684  0.885626  3.335356
H    -2.167020  -1.221936  1.324018
C    -2.704430  -1.518778  3.404823
C    -1.442407  -2.371367  3.709111
C    -1.049262  -2.505943  5.193357
C    -0.458084  -1.295002  5.919980
N    0.938353  -0.911774  5.462906
H    -3.557549  -2.193928  3.245214
H    -2.964411  -0.878880  4.264237
H    -0.581692  -1.998106  3.136683
H    -1.607716  -3.384910  3.321338
H    -0.350381  -3.351501  5.291269
H    -1.927648  -2.809993  5.783133
H    -1.062935  -0.384811  5.815097
H    -0.383438  -1.518068  6.990750
H    1.389091  -0.298539  6.156443
H    0.918852  -0.373400  4.553946
H    1.546374  -1.735281  5.357775
N    -3.748677  0.965551  0.689986
C    -2.610012  1.409917  -0.131116
H    -4.642589  1.396538  0.451358
H    -1.997962  2.129978  0.423723
H    -3.019082  1.890935  -1.024527
H    -1.999514  0.556324  -0.438654
Ca    -6.847737  -0.663059  2.762991
