35
Energy: -36757.8460207 eV PBE+vdW (tier 2 basis)
C    -0.316596  -0.177110  0.279054
C    -0.905506  -0.673423  1.572505
O    -0.208879  -1.145351  2.469196
H    -1.044711  0.037094  -0.510301
H    0.396393  -0.929653  -0.081679
H    0.272152  0.732773  0.463081
N    -2.289408  -0.641783  1.751257
C    -3.203305  0.415144  1.297135
C    -3.604695  0.220780  -0.173187
O    -3.967796  -0.955536  -0.586388
H    -2.529302  -1.014899  2.668993
H    -4.149907  0.203524  1.826706
C    -2.799393  1.859963  1.689096
C    -2.481303  2.041689  3.196288
C    -0.985945  1.881974  3.581665
C    -0.764465  1.005414  4.819234
N    0.618065  0.380358  4.804933
H    -3.647303  2.520223  1.448887
H    -1.939932  2.203283  1.090879
H    -3.107155  1.353777  3.786464
H    -2.817647  3.043427  3.486951
H    -0.542138  2.872457  3.749515
H    -0.427924  1.450493  2.741300
H    -1.458924  0.157476  4.852801
H    -0.864227  1.565319  5.756345
H    0.798577  -0.158516  5.664047
H    1.363772  1.086266  4.728341
H    0.681844  -0.270373  3.994714
N    -3.640670  1.244121  -0.991070
C    -4.088541  1.231388  -2.389083
H    -3.340829  2.140762  -0.608392
H    -3.983425  2.241718  -2.793470
H    -5.144333  0.938377  -2.447748
H    -3.468247  0.548605  -2.982829
Ca    -4.548252  -2.827651  -1.099616
