35
Energy: -36759.3798346 eV PBE+vdW (tier 2 basis)
C    -1.033795  -0.672361  -0.566668
C    -0.447442  -0.811969  0.797829
O    0.564034  -1.558441  0.984845
H    -1.354106  0.353300  -0.775464
H    -1.910128  -1.332018  -0.679087
H    -0.290217  -0.985032  -1.307520
N    -0.968548  -0.155757  1.870476
C    -2.397422  -0.181392  2.233579
C    -2.819925  -1.688544  2.343372
O    -1.929622  -2.602542  2.274787
H    -0.352909  -0.216003  2.682176
H    -2.420019  0.196713  3.268604
C    -3.336214  0.722167  1.402276
C    -2.932485  2.211167  1.397373
C    -3.916455  3.055590  0.562789
C    -3.542102  4.519952  0.324749
N    -3.848980  5.442927  1.501862
H    -3.424437  0.348092  0.373288
H    -4.345786  0.641588  1.834613
H    -1.917426  2.317479  0.984782
H    -2.882049  2.571952  2.438157
H    -4.936430  2.993961  0.976995
H    -3.995372  2.619642  -0.445106
H    -2.475317  4.653869  0.105505
H    -4.115206  4.930415  -0.514949
H    -4.852613  5.434979  1.737269
H    -3.326471  5.193993  2.352648
H    -3.603097  6.418494  1.272010
N    -4.082767  -1.990345  2.559341
C    -4.598256  -3.352463  2.769034
H    -4.755261  -1.229833  2.615378
H    -4.367369  -3.982061  1.902289
H    -5.682750  -3.293422  2.890796
H    -4.157372  -3.789229  3.673058
Ca    0.059896  -3.412205  1.971636
