15
Energy: -13931.3306975 eV PBE+vdW (tier 2 basis)
N    0.671042  -0.806273  -0.100827
C    0.230952  -0.155971  1.130051
C    1.402915  0.349866  1.936809
O    2.584506  0.088609  1.799364
H    -0.219599  -1.102876  -0.533570
H    1.114479  -0.125548  -0.719715
H    -0.431344  0.718173  0.958416
C    -0.592593  -1.162831  1.965855
C    -1.919551  -1.655241  1.269421
O    -2.097225  -1.319124  0.060980
O    -2.655157  -2.345057  2.013813
H    -0.869732  -0.720233  2.931391
H    0.030525  -2.047409  2.170518
O    0.992672  1.212521  2.936395
H    1.817110  1.428395  3.411098
