15
Energy: -13931.3011003 eV PBE+vdW (tier 2 basis)
N    0.678979  -0.486397  -0.226145
C    0.026313  0.321522  0.809565
C    0.654183  0.258966  2.204340
O    0.189156  0.767128  3.210434
H    1.688073  -0.338147  -0.175673
H    0.530927  -1.457361  0.079768
H    0.114749  1.387950  0.520174
C    -1.457348  -0.041865  0.905942
C    -1.673215  -1.507364  1.411494
O    -0.621411  -2.077684  1.846088
O    -2.839735  -1.955711  1.342425
H    -1.927728  0.079856  -0.080012
H    -1.968342  0.635502  1.604565
O    1.929206  -0.262415  2.211548
H    2.188195  -0.214979  3.150486
