15
Energy: -13931.9491037 eV PBE+vdW (tier 2 basis)
N    0.031139  -0.195930  0.103216
C    0.112973  0.041160  1.556170
C    1.629711  0.191075  1.913906
O    2.204159  1.169921  1.400508
H    0.660837  0.477618  -0.339415
H    -0.912750  -0.000863  -0.236062
H    -0.319995  1.024717  1.838406
C    -0.697496  -1.009444  2.332972
C    -0.343549  -2.492332  2.150744
O    0.916072  -2.814609  2.388371
O    -1.203384  -3.321032  1.862732
H    -1.762279  -0.911218  2.074946
H    -0.603174  -0.777688  3.406941
O    2.152715  -0.680948  2.697775
H    1.475021  -1.906426  2.574790
