15
Energy: -13931.2724601 eV PBE+vdW (tier 2 basis)
N    1.031749  -1.535395  0.488454
C    0.328211  -0.418308  1.154588
C    1.359127  0.315961  1.998476
O    1.520025  0.278524  3.201631
H    0.227272  -2.096831  0.119296
H    1.547747  -1.172225  -0.315126
H    -0.067809  0.323096  0.428617
C    -0.842804  -0.955797  1.977655
C    -1.960221  -1.652969  1.123026
O    -3.131953  -1.523452  1.546249
O    -1.565652  -2.304911  0.101137
H    -1.304350  -0.145282  2.555702
H    -0.456812  -1.691649  2.701596
O    2.188407  1.088627  1.206822
H    2.838063  1.463610  1.831878
