15
Energy: -13931.2518687 eV PBE+vdW (tier 2 basis)
N    -0.230896  0.569292  -0.098008
C    -0.203375  0.516929  1.372588
C    1.111987  -0.040028  1.896796
O    1.347437  -0.231256  3.079345
H    -1.166706  0.882721  -0.367830
H    -0.181617  -0.416002  -0.389422
H    -0.220511  1.559778  1.746303
C    -1.375616  -0.250954  2.005335
C    -1.437943  -1.740599  1.528595
O    -0.372200  -2.166027  0.983418
O    -2.515298  -2.345866  1.737972
H    -2.323301  0.253793  1.757181
H    -1.286681  -0.245052  3.102596
O    2.087376  -0.191204  0.952083
H    2.831344  -0.570525  1.457047
