15
Energy: -13931.3744839 eV PBE+vdW (tier 2 basis)
N    -0.008345  0.124390  -0.097773
C    0.027298  0.095605  1.358976
C    1.456889  0.164560  1.864199
O    2.451568  -0.117565  1.230614
H    -0.875639  -0.387137  -0.348916
H    0.792666  -0.411948  -0.439870
H    -0.500572  0.993046  1.742255
C    -0.666796  -1.142902  2.003111
C    -2.185603  -1.255338  1.603579
O    -2.419512  -1.261020  0.358120
O    -2.993483  -1.332258  2.559849
H    -0.607598  -1.097142  3.101406
H    -0.136628  -2.049692  1.667186
O    1.592492  0.552852  3.179732
H    0.695777  0.681700  3.539205
