15
Energy: -13931.0996843 eV PBE+vdW (tier 2 basis)
N    1.873209  -1.326218  0.450718
C    0.509762  -0.791954  0.721738
C    0.668578  0.403346  1.657657
O    0.861978  1.549154  1.276188
H    1.777244  -2.161856  -0.128762
H    2.392308  -0.644619  -0.108033
H    0.042993  -0.361746  -0.180404
C    -0.411663  -1.863659  1.277481
C    -1.805377  -1.261130  1.653101
O    -1.806150  0.003652  1.765011
O    -2.751388  -2.068938  1.808396
H    0.032579  -2.321598  2.174691
H    -0.553663  -2.669358  0.539201
O    0.847081  0.053117  2.968750
H    0.954506  0.906806  3.426269
