27
Energy: -569905.144178 eV PBE+vdW (tier 2 basis)
N    -0.312584  1.213152  1.904171
C    -0.184424  -0.210938  2.427437
C    0.871313  -0.098407  3.581180
O    1.160871  -1.199893  4.143110
H    -1.275012  1.569840  1.911623
H    0.070942  1.326972  0.957991
H    -1.141289  -0.467968  2.903159
C    0.183781  -1.231857  1.350354
C    -0.934784  -1.507444  0.332130
C    -0.549458  -2.622900  -0.648855
N    -1.622737  -2.885395  -1.583311
C    -1.695675  -3.891846  -2.506301
N    -2.826484  -3.884692  -3.197045
N    -0.677253  -4.766232  -2.641048
H    0.435028  -2.156251  1.889745
H    1.111394  -0.914901  0.844831
H    -1.175691  -0.600404  -0.247141
H    -1.852007  -1.803286  0.864850
H    -0.318874  -3.549960  -0.092213
H    0.367720  -2.345561  -1.202903
H    -2.448349  -2.288890  -1.605542
H    -2.882065  -4.643873  -3.887544
H    -0.749061  -5.516092  -3.319739
H    0.190024  -4.706001  -2.119894
O    1.291622  1.042093  3.845034
H    0.287463  1.765321  2.581517
Hg    2.619554  -0.487428  5.817214
