27
Energy: -569904.737086 eV PBE+vdW (tier 2 basis)
N    0.389795  -0.483812  0.180962
C    0.952516  -0.246175  1.508341
C    2.401722  -0.813146  1.622367
O    2.814072  -1.766709  0.977087
H    -0.616363  -0.654942  0.187341
H    0.595093  0.261019  -0.489005
H    1.038613  0.844277  1.668509
C    0.099465  -0.881171  2.632497
C    -1.219151  -0.139475  2.912522
C    -1.984790  -0.764232  4.086536
N    -3.209116  -0.041119  4.354106
C    -4.054300  -0.199719  5.417720
N    -5.075816  0.645692  5.397698
N    -3.808825  -1.139894  6.352168
H    0.704337  -0.902248  3.550968
H    -0.087465  -1.936200  2.373677
H    -1.871028  -0.146249  2.023797
H    -1.008172  0.915703  3.145104
H    -1.356042  -0.754543  4.996196
H    -2.217934  -1.825225  3.872969
H    -3.534483  0.682944  3.714786
H    -5.708134  0.535735  6.200876
H    -4.434919  -1.232279  7.144850
H    -3.046530  -1.806018  6.296243
O    3.199145  -0.259398  2.518178
H    2.820393  0.536250  2.939840
Hg    1.411917  -2.563821  -0.891882
