27
Energy: -569905.585339 eV PBE+vdW (tier 2 basis)
N    -0.341746  1.383563  1.241236
C    0.360652  0.231862  1.933778
C    1.134982  -0.444932  0.782726
O    0.914005  -0.132609  -0.373479
H    -0.226364  1.148593  0.217291
H    0.115633  2.286656  1.409134
H    1.067676  0.634498  2.671337
C    -0.644261  -0.732054  2.581242
C    -1.268064  -0.295977  3.913780
C    -2.003097  1.068852  3.970406
N    -2.844697  1.319558  2.820389
C    -4.147140  1.553014  2.984961
N    -4.895727  0.855756  2.080908
N    -4.722198  2.230712  3.984848
H    -0.108174  -1.672663  2.767657
H    -1.422307  -0.976661  1.841010
H    -0.500700  -0.270236  4.700525
H    -1.987261  -1.073015  4.209378
H    -1.239033  1.874223  3.966398
H    -2.536018  1.138919  4.930418
H    -1.346818  1.445462  1.516669
H    -4.297380  0.542139  1.307293
H    -5.711319  2.142244  4.189063
H    -4.161702  2.735806  4.661763
O    1.986950  -1.355588  1.220952
H    2.451571  -1.773458  0.464290
Hg    -6.678961  1.731118  1.109694
