27
Energy: -569905.33903 eV PBE+vdW (tier 2 basis)
N    0.461927  -1.339653  -0.340456
C    0.182566  -0.348659  0.661458
C    1.496164  0.143575  1.257868
O    2.475410  -0.579498  1.402473
H    1.406608  -1.384947  -0.718052
H    -0.271718  -1.531410  -1.020021
H    -0.376654  0.500387  0.231194
C    -0.735156  -0.918656  1.815094
C    -0.092810  -1.946372  2.740333
C    0.321201  -3.257719  2.032314
N    1.136094  -4.148887  2.837577
C    2.463774  -4.067446  3.029391
N    3.001495  -5.028264  3.850711
N    3.188273  -3.076331  2.508415
H    -1.634159  -1.325820  1.329832
H    -1.059802  -0.052545  2.407456
H    -0.830651  -2.205618  3.516184
H    0.762248  -1.509117  3.276619
H    0.876128  -3.005727  1.104034
H    -0.570693  -3.818393  1.726479
H    0.671057  -4.874937  3.378558
H    3.969179  -4.790585  4.103466
H    4.199858  -3.099079  2.586622
H    2.790827  -2.226181  2.073466
O    1.424558  1.412862  1.626181
H    2.271975  1.697003  2.030932
Hg    3.296135  -7.104873  3.098519
