27
Energy: -569906.026707 eV PBE+vdW (tier 2 basis)
N    0.810165  0.458861  0.619697
C    0.634702  -0.013781  2.018705
C    1.952820  0.028769  2.819215
O    2.876252  0.943646  2.615611
H    1.226924  -0.255112  0.014632
H    -0.070763  0.760189  0.196252
H    -0.018020  0.726922  2.511629
C    -0.019043  -1.413523  2.151637
C    -1.445533  -1.488021  1.587200
C    -2.271695  -2.665928  2.118841
N    -1.738032  -3.970753  1.704663
C    -1.997967  -5.139584  2.320640
N    -2.857418  -5.197127  3.343453
N    -1.366964  -6.251529  1.919812
H    -0.033683  -1.650951  3.222863
H    0.639684  -2.163455  1.687507
H    -1.443669  -1.508161  0.484675
H    -2.009985  -0.585419  1.869244
H    -3.312018  -2.555512  1.773176
H    -2.272439  -2.636048  3.218190
H    -1.355170  -4.037618  0.766238
H    -3.542629  -4.469605  3.505163
H    -1.676836  -7.169678  2.217194
H    -0.549650  -6.213335  1.323208
O    2.170922  -0.757244  3.731073
H    -2.929697  -6.029608  3.917827
Hg    2.525214  2.210499  0.908421
