27
Energy: -569906.267461 eV PBE+vdW (tier 2 basis)
N    0.184207  -1.184005  -0.119035
C    -0.043853  -0.522279  1.189489
C    0.779156  0.673496  1.470934
O    1.300106  1.019029  2.518748
H    0.912462  -0.665915  -0.636196
H    0.479863  -2.169160  -0.002028
H    0.967926  1.179682  4.412742
C    -1.253097  -0.940315  1.931133
C    -1.165816  -0.801410  3.470092
C    -1.559286  0.585137  4.012047
N    -1.375215  0.690777  5.457301
C    -0.272490  1.146008  6.081000
N    0.843187  1.415610  5.399617
N    -0.306845  1.329268  7.409086
H    -1.464144  -1.994042  1.672237
H    -2.142514  -0.395899  1.545982
H    -0.155508  -1.070008  3.806149
H    -1.845008  -1.551738  3.898357
H    -2.619142  0.787728  3.805617
H    -0.992209  1.393383  3.533344
H    -2.129009  0.355799  6.048265
H    1.604895  1.908758  5.850069
H    0.535445  1.526624  7.935825
H    -1.178072  1.322320  7.925483
O    0.596674  1.313596  0.347047
H    -0.660461  -1.188298  -0.718357
Hg    2.184455  3.119482  -0.147004
