27
Energy: -569906.310742 eV PBE+vdW (tier 2 basis)
N    0.503381  0.350771  0.268345
C    -0.604765  0.315160  1.313240
C    0.072596  0.695185  2.642237
O    -0.553773  1.562133  3.364341
H    0.232322  -0.128917  -0.602352
H    0.771766  1.315978  0.025339
H    -1.369673  1.039938  1.011862
C    -1.143130  -1.133162  1.389293
C    -2.383258  -1.428884  2.262715
C    -2.305158  -1.411939  3.802830
N    -1.296514  -2.315940  4.377699
C    -0.460509  -2.043661  5.398477
N    -0.630998  -1.002750  6.295269
N    0.613806  -2.806597  5.606065
H    -0.304751  -1.786790  1.676350
H    -1.433647  -1.418867  0.365551
H    -2.738513  -2.422257  1.950100
H    -3.200685  -0.742240  1.996801
H    -3.299513  -1.692038  4.181086
H    -2.112973  -0.399261  4.175782
H    -1.239331  -3.246258  3.965241
H    -1.627136  -0.816237  6.455598
H    1.090760  -2.730145  6.499848
H    0.916830  -3.532913  4.965254
O    1.088687  0.060206  2.962683
H    1.337743  -0.117337  0.666721
Hg    0.011436  0.773822  5.329625
