27
Energy: -569905.231328 eV PBE+vdW (tier 2 basis)
N    -0.451322  0.889335  0.844961
C    -0.068874  -0.147232  1.792562
C    1.406544  -0.461926  1.615826
O    2.075210  0.092023  0.731788
H    0.142218  1.716440  0.907214
H    -1.417927  1.184174  0.992913
H    -0.183649  0.167702  2.851871
C    -0.961382  -1.420137  1.637107
C    -1.369048  -1.890489  0.233811
C    -0.268523  -2.237810  -0.788492
N    0.091030  -1.082803  -1.615119
C    1.304961  -0.716712  -2.046569
N    2.370781  -1.572462  -2.070785
N    1.505561  0.523675  -2.512549
H    -1.892672  -1.197798  2.178726
H    -0.506811  -2.255473  2.191027
H    -2.065663  -1.174483  -0.225697
H    -1.961511  -2.803748  0.382602
H    -0.641505  -3.031946  -1.452960
H    0.637966  -2.624520  -0.301100
H    -0.691192  -0.490519  -1.895103
H    2.111139  -2.551225  -1.918935
H    2.265251  0.688724  -3.165684
H    0.803748  1.249922  -2.418195
O    2.001744  -1.345472  2.402924
H    1.422630  -1.683785  3.115661
Hg    3.779929  -1.054853  -0.511345
