27
Energy: -569904.515362 eV PBE+vdW (tier 2 basis)
N    1.628099  0.199076  -0.243554
C    0.890092  0.221269  1.020635
C    1.767192  -0.279205  2.207164
O    2.719636  -1.038250  2.084700
H    1.045016  -0.031813  -1.049493
H    2.111245  1.080140  -0.434988
H    0.640829  1.271524  1.253975
C    -0.433903  -0.586220  0.975187
C    -0.305097  -2.102448  0.738674
C    -1.604414  -2.880593  0.994029
N    -2.664550  -2.570525  0.043252
C    -4.006043  -2.760971  0.248308
N    -4.943043  -2.351611  -0.593692
N    -4.444269  -3.330443  1.391460
H    -1.073099  -0.117424  0.211650
H    -0.951496  -0.414217  1.930841
H    0.441714  -2.535870  1.419928
H    0.053366  -2.321527  -0.280373
H    -1.979339  -2.654841  2.005397
H    -1.380021  -3.962468  0.968961
H    -2.402711  -2.368243  -0.917652
H    -4.569980  -1.982197  -1.477052
H    -5.452976  -3.381130  1.513366
H    -3.862213  -3.881572  2.011246
O    1.407598  0.095255  3.421810
H    0.693628  0.762467  3.431716
Hg    3.546376  -1.452743  -0.212220
