27
Energy: -569905.387615 eV PBE+vdW (tier 2 basis)
N    0.849279  -1.156686  -0.038395
C    0.512970  -0.489203  1.201698
C    1.598911  -0.762867  2.254912
O    2.188128  -1.837829  2.349592
H    0.089764  -1.174287  -0.717964
H    1.726796  -0.870214  -0.474083
H    0.491069  0.609969  1.065048
C    -0.876567  -0.944624  1.705896
C    -1.008085  -2.385598  2.225069
C    -0.704377  -3.542707  1.263851
N    0.734924  -3.637941  0.963885
C    1.346246  -4.562259  0.197173
N    0.716918  -5.706537  -0.134148
N    2.634938  -4.375229  -0.140078
H    -1.591127  -0.767399  0.885808
H    -1.180214  -0.263493  2.511742
H    -2.054431  -2.517393  2.533947
H    -0.422016  -2.527918  3.146002
H    -1.265418  -3.445999  0.319933
H    -1.027820  -4.473842  1.755265
H    1.372762  -3.027684  1.550641
H    -0.274067  -5.721067  0.119796
H    3.125926  -3.554742  0.200808
H    3.216235  -5.183263  -0.339538
O    1.780629  0.267191  3.057039
H    2.435535  0.050035  3.756042
Hg    0.817906  -6.526566  -2.183814
