27
Energy: -569904.461573 eV PBE+vdW (tier 2 basis)
N    0.810107  1.145752  1.803294
C    0.633324  0.342564  3.020355
C    1.969908  0.126120  3.808710
O    3.039458  0.641234  3.513568
H    0.859422  0.541501  0.974057
H    0.002671  1.829349  1.649041
H    0.037162  0.962890  3.708825
C    -0.089417  -1.027229  2.758543
C    -1.319836  -1.307500  3.664353
C    -2.670759  -0.843514  3.077386
N    -2.694833  0.586959  2.779956
C    -2.331079  1.164487  1.595512
N    -1.672865  2.328373  1.549764
N    -2.494242  0.486429  0.444262
H    0.634125  -1.847527  2.862065
H    -0.402082  -1.056101  1.706114
H    -1.193237  -0.851864  4.661184
H    -1.397174  -2.389603  3.841987
H    -3.472804  -1.059928  3.797449
H    -2.901619  -1.413133  2.169829
H    -2.701129  1.214024  3.581479
H    -1.792720  2.869010  2.415227
H    -2.326642  1.008963  -0.411255
H    -3.155836  -0.279521  0.374441
O    1.915748  -0.634742  4.882961
H    1.037216  -1.022184  5.058750
Hg    2.938675  2.219250  1.681024
