27
Energy: -569904.278503 eV PBE+vdW (tier 2 basis)
N    -1.161297  0.961742  0.845893
C    -0.562686  -0.177151  1.551042
C    0.983230  -0.021195  1.696539
O    1.586727  1.025743  1.474448
H    -1.196473  0.815486  -0.168401
H    -2.119111  1.166484  1.186459
H    -0.932638  -0.132075  2.588746
C    -0.947047  -1.544295  0.902176
C    -2.441729  -1.728408  0.609921
C    -3.364358  -1.768245  1.863209
N    -4.698628  -1.259253  1.580317
C    -5.006593  0.065421  1.409504
N    -5.975657  0.527407  0.684143
N    -4.133900  1.002849  1.986800
H    -0.616852  -2.359881  1.565849
H    -0.387393  -1.659919  -0.038227
H    -2.561449  -2.665015  0.049835
H    -2.796675  -0.936348  -0.064895
H    -2.939058  -1.193814  2.696386
H    -3.473197  -2.797648  2.225724
H    -5.385564  -1.920562  1.222665
H    -6.649626  -0.160187  0.329114
H    -4.536288  1.935633  1.866358
H    -3.945175  0.829012  2.976290
O    1.678740  -1.052381  2.123374
H    1.149756  -1.862593  2.253776
Hg    0.249102  2.956428  0.980600
