27
Energy: -569904.943721 eV PBE+vdW (tier 2 basis)
N    0.035262  0.436704  0.036311
C    0.064931  0.160416  1.534693
C    1.584822  -0.078413  1.850169
O    2.367023  -0.052467  0.883524
H    -0.547743  -0.231095  -0.483134
H    -0.268754  1.388027  -0.201118
H    -0.228387  1.084539  2.049320
C    -0.812757  -1.029010  1.929166
C    -2.336459  -0.786667  1.900784
C    -2.874391  -0.121770  3.191766
N    -4.318015  0.052555  3.180171
C    -5.270746  -0.891362  3.454471
N    -6.568325  -0.699107  3.275079
N    -4.911835  -2.115587  3.902577
H    -0.496116  -1.332694  2.937278
H    -0.562345  -1.881751  1.278141
H    -2.833149  -1.757369  1.763970
H    -2.640503  -0.176296  1.035404
H    -2.434768  0.873406  3.342592
H    -2.581898  -0.715914  4.071772
H    -4.682745  0.953351  2.886265
H    -6.801289  0.255853  2.975800
H    -5.674351  -2.750197  4.124723
H    -3.987947  -2.344709  4.246338
O    1.845999  -0.263533  3.077621
H    1.048773  0.315484  -0.246466
Hg    4.169487  -0.515330  2.986091
