27
Energy: -569905.886021 eV PBE+vdW (tier 2 basis)
N    2.719856  -0.876397  -0.771297
C    1.773157  0.145429  -0.360885
C    2.127258  0.994196  0.920296
O    2.957789  0.653338  1.749082
H    1.848644  -2.681427  -1.558484
H    3.342319  -0.468675  -1.485115
H    1.735006  0.899481  -1.169124
C    0.349556  -0.457320  -0.154615
C    0.142484  -1.448737  1.000211
C    0.518850  -2.918572  0.747904
N    -0.255690  -3.554761  -0.322226
C    0.209957  -3.946581  -1.519536
N    1.380229  -3.485257  -1.982346
N    -0.507236  -4.803323  -2.257739
H    0.051645  -0.902937  -1.114271
H    -0.340548  0.387327  -0.010089
H    -0.923294  -1.419934  1.270230
H    0.667650  -1.120917  1.910911
H    0.334489  -3.489623  1.668308
H    1.581865  -3.047013  0.512572
H    -1.208559  -3.825620  -0.095846
H    1.811405  -3.912478  -2.793537
H    -0.296870  -4.964172  -3.236135
H    -1.266331  -5.343886  -1.858754
O    1.435245  2.096151  1.119695
H    0.832369  2.322940  0.384929
Hg    4.224606  -1.211729  0.788398
