27
Energy: -569905.25973 eV PBE+vdW (tier 2 basis)
N    -1.140209  -0.103666  -0.326272
C    -0.654029  -0.226821  0.995098
C    0.281823  0.986446  1.413079
O    1.310973  1.234513  0.793258
H    -1.881947  0.561505  -0.522123
H    -0.512967  -0.279890  -1.105925
H    -1.519388  -0.193084  1.678779
C    0.129013  -1.543822  1.220360
C    0.404690  -1.950153  2.690610
C    1.866743  -2.011883  3.157450
N    2.478137  -0.683053  3.330865
C    3.504130  -0.129931  2.671919
N    4.024542  1.094984  3.036151
N    4.081370  -0.712149  1.616879
H    1.055662  -1.506870  0.628275
H    -0.498253  -2.315525  0.755554
H    0.007833  -2.962596  2.846170
H    -0.170309  -1.323980  3.392926
H    2.478839  -2.606363  2.468103
H    1.917911  -2.522572  4.129433
H    2.090683  -0.116990  4.082168
H    3.765994  1.356912  3.994193
H    4.980090  -0.351426  1.310553
H    3.799510  -1.618623  1.262887
O    -0.041178  1.717324  2.472633
H    -0.918711  1.491896  2.841349
Hg    3.064289  2.615225  1.785575
