27
Energy: -569905.14528 eV PBE+vdW (tier 2 basis)
N    -0.508485  0.175967  -0.243416
C    -0.819590  0.152350  1.143957
C    0.165941  1.099211  1.858575
O    0.838078  1.898295  1.249514
H    -1.136779  -0.256986  -0.914864
H    0.097456  0.928925  -0.576501
H    -1.796614  0.664403  1.327784
C    -0.964022  -1.276421  1.718984
C    0.351853  -2.073649  1.694102
C    0.216411  -3.556773  2.045746
N    -0.043685  -3.795473  3.474284
C    0.277295  -4.919455  4.147936
N    0.442418  -4.894996  5.489670
N    0.536217  -6.052709  3.483160
H    -1.732233  -1.800400  1.128625
H    -1.371938  -1.173720  2.734679
H    1.104516  -1.611879  2.351072
H    0.770241  -2.037898  0.677564
H    1.152782  -4.074555  1.789145
H    -0.592566  -4.019327  1.452650
H    -0.452514  -3.038786  4.016003
H    0.301745  -3.971876  5.907754
H    1.056939  -6.795977  3.935116
H    0.330193  -6.162338  2.497456
O    0.135070  0.954470  3.191082
H    0.708152  1.645119  3.586708
Hg    -0.578823  -6.353811  6.825315
