27
Energy: -569906.290985 eV PBE+vdW (tier 2 basis)
N    -0.174047  -2.145902  -0.612455
C    0.019723  -1.016505  0.279404
C    1.325778  -0.355358  -0.183246
O    2.502225  -0.596620  0.254419
H    -0.497734  -1.938817  -1.554508
H    0.570960  -2.840221  -0.621816
H    -0.796641  -0.296314  0.110757
C    -0.022495  -1.494972  1.736128
C    0.086823  -0.422045  2.835830
C    0.438574  -1.049621  4.212585
N    1.358319  -0.256873  5.039446
C    2.686267  -0.443137  5.148938
N    3.397247  -1.074216  4.183272
N    3.315280  -0.020935  6.253402
H    0.750861  -2.277192  1.870213
H    -0.968084  -2.044924  1.838307
H    -0.853468  0.141661  2.905407
H    0.836852  0.353749  2.589843
H    0.886680  -2.045289  4.085662
H    -0.470816  -1.203253  4.805215
H    0.941780  0.392284  5.701447
H    4.334964  -1.371124  4.446156
H    4.320213  0.118726  6.272395
H    2.814953  0.134695  7.123576
O    1.337033  0.408436  -1.243901
H    0.445573  0.568372  -1.615505
Hg    3.003284  -0.905336  2.214142
