27
Energy: -569905.557249 eV PBE+vdW (tier 2 basis)
N    -0.172986  -2.239980  0.592977
C    -0.295464  -0.814779  1.079666
C    1.146802  -0.275910  0.991594
O    2.086759  -1.041229  0.898826
H    -0.274886  -2.295652  -0.427326
H    0.816123  -2.509886  0.803774
H    -0.956377  -0.267086  0.395856
C    -0.806974  -0.722441  2.526076
C    -2.236622  -1.214377  2.813498
C    -2.389283  -2.705920  3.210241
N    -2.256379  -3.571302  2.058473
C    -2.970762  -4.687062  1.896398
N    -3.015312  -5.550821  2.947232
N    -3.428190  -5.065068  0.695654
H    -0.759591  0.347062  2.775335
H    -0.086573  -1.213238  3.200719
H    -2.921866  -0.975804  1.987180
H    -2.609981  -0.655821  3.683923
H    -3.350172  -2.853250  3.728860
H    -1.577884  -2.923084  3.930516
H    -0.878887  -2.879914  1.047916
H    -2.737588  -5.122612  3.834375
H    -3.401694  -4.416616  -0.081678
H    -3.618000  -6.037783  0.481966
O    1.187964  1.046536  1.066686
H    2.120092  1.352178  1.041295
Hg    -4.773079  -6.767024  3.471869
