27
Energy: -19682.91201 eV PBE+vdW (tier 2 basis)
C    -0.141187  0.262299  -0.079798
C    0.085455  -0.247834  1.327508
O    1.216102  -0.604404  1.688431
H    0.842249  0.361462  -0.548341
H    -0.662998  1.226328  -0.085575
H    -0.743529  -0.440333  -0.669643
N    -0.946241  -0.299906  2.228299
C    -2.413269  -0.102472  2.224108
C    -3.098698  -1.442214  2.578078
O    -3.747605  -1.555603  3.618645
H    -0.592877  -0.622187  3.127152
H    -2.635842  0.514968  3.107232
C    -3.060229  0.622790  1.040790
C    -2.750766  2.124891  0.990374
C    -3.914240  3.045269  1.550435
O    -5.008750  2.472704  1.798082
O    -3.595192  4.255837  1.656196
H    -4.150921  0.572416  1.215198
H    -2.851510  0.115458  0.088027
H    -2.581614  2.452759  -0.047517
H    -1.835717  2.384903  1.543634
N    -2.978159  -2.522975  1.738217
C    -2.201344  -2.689325  0.524300
H    -3.441029  -3.342953  2.115795
H    -2.408128  -1.889623  -0.197434
H    -2.494682  -3.637005  0.056804
H    -1.117266  -2.718316  0.712935
