27
Energy: -19683.3916771 eV PBE+vdW (tier 2 basis)
C    -0.752941  0.225215  -0.269298
C    -0.357841  -0.042109  1.173018
O    0.730930  -0.573239  1.437597
H    0.128160  0.559355  -0.827844
H    -1.556635  0.965189  -0.373741
H    -1.096190  -0.721308  -0.710043
N    -1.274996  0.335716  2.100764
C    -1.377129  -0.111827  3.513010
C    -0.304831  0.481339  4.449376
O    -0.637711  1.053705  5.493063
H    -2.153198  0.665540  1.718610
H    -2.308671  0.344009  3.872585
C    -1.519945  -1.640681  3.644343
C    -2.700925  -2.206908  2.860366
C    -3.107919  -3.681714  3.259491
O    -3.784587  -4.284510  2.385903
O    -2.739864  -4.066031  4.400878
H    -1.662046  -1.890426  4.706304
H    -0.586251  -2.133292  3.336322
H    -2.519425  -2.195729  1.775088
H    -3.600302  -1.586180  3.034478
N    0.983900  0.277210  4.073701
C    2.101614  0.720127  4.873263
H    1.134471  -0.177644  3.162522
H    2.720119  -0.128969  5.203192
H    1.703301  1.230867  5.757856
H    2.743422  1.418816  4.314115
