27
Energy: -19683.5327714 eV PBE+vdW (tier 2 basis)
C    0.643864  -0.286269  0.226528
C    0.284302  -0.075935  1.692671
O    1.136606  0.279484  2.515121
H    1.486833  -0.986075  0.166131
H    0.978728  0.671256  -0.193721
H    -0.188514  -0.666557  -0.379084
N    -1.016611  -0.291608  1.994297
C    -1.571481  -0.207109  3.336058
C    -2.715423  -1.238250  3.360767
O    -3.159558  -1.707209  2.301903
H    -1.655694  -0.722709  1.325876
H    -0.780003  -0.507941  4.040989
C    -2.015455  1.236002  3.695765
C    -3.308930  1.722947  3.035834
C    -4.613311  1.574887  3.908126
O    -4.444568  1.402840  5.155637
O    -5.690537  1.684605  3.276968
H    -1.154776  1.874300  3.445168
H    -2.169824  1.307618  4.782570
H    -3.494810  1.240999  2.064964
H    -3.224067  2.799656  2.818379
N    -3.198271  -1.639688  4.562483
C    -2.906149  -1.087885  5.880871
H    -4.065303  -2.160326  4.467922
H    -3.218603  -1.822756  6.634258
H    -3.439468  -0.129579  6.021205
H    -1.824765  -0.936054  5.994738
