27
Energy: -19683.3714835 eV PBE+vdW (tier 2 basis)
C    0.421607  -0.280152  0.071562
C    0.338083  -0.225731  1.589053
O    1.353625  -0.234850  2.291271
H    1.469555  -0.426355  -0.204407
H    0.058745  0.660955  -0.364891
H    -0.183509  -1.096683  -0.347138
N    -0.911202  -0.195261  2.134822
C    -2.185989  -0.046591  1.446499
C    -2.361666  1.402757  0.922577
O    -1.652308  2.324992  1.327750
H    -0.918207  -0.010729  3.134915
H    -2.177506  -0.721168  0.575018
C    -3.334050  -0.497244  2.377984
C    -3.772124  0.504205  3.455289
C    -5.199378  1.142578  3.214937
O    -5.554665  1.965454  4.088441
O    -5.832920  0.753769  2.186221
H    -3.016911  -1.459492  2.811005
H    -4.233838  -0.691076  1.775186
H    -3.069141  1.344666  3.560183
H    -3.812586  0.024990  4.444066
N    -3.296845  1.608812  -0.051047
C    -4.348472  0.705589  -0.509438
H    -3.449056  2.599909  -0.214286
H    -4.762761  1.113558  -1.440486
H    -5.141849  0.602145  0.253641
H    -3.928145  -0.282218  -0.744882
