27
Energy: -19683.744031 eV PBE+vdW (tier 2 basis)
C    -1.353085  -1.171409  -0.091809
C    -0.625317  -0.492994  1.052388
O    0.602532  -0.579448  1.185043
H    -0.596148  -1.599900  -0.755012
H    -1.972443  -0.464033  -0.661038
H    -2.029282  -1.970265  0.249185
N    -1.367099  0.223740  1.948561
C    -2.790249  0.509537  1.944230
C    -2.976281  2.007938  2.207668
O    -2.152001  2.656367  2.865348
H    -0.824093  0.743266  2.635990
H    -3.209825  0.241777  0.967490
C    -3.576587  -0.298764  3.009713
C    -3.709274  -1.773066  2.639895
C    -4.458611  -2.034509  1.287701
O    -5.240550  -1.113892  0.892464
O    -4.206301  -3.129952  0.729888
H    -4.582529  0.135310  3.097668
H    -3.071126  -0.163797  3.980774
H    -2.726487  -2.264700  2.597623
H    -4.273903  -2.296673  3.429208
N    -4.113388  2.590391  1.735110
C    -5.150832  2.016370  0.887186
H    -4.171125  3.577545  1.968215
H    -5.014527  2.304699  -0.168182
H    -6.132024  2.382625  1.219856
H    -5.169564  0.913274  0.951608
