27
Energy: -19684.017346 eV PBE+vdW (tier 2 basis)
C    0.326069  0.702499  0.547338
C    -0.202023  -0.548806  1.246679
O    0.413837  -1.618904  1.163675
H    -0.392061  1.092944  -0.188531
H    1.250370  0.426784  0.031471
H    0.532803  1.511313  1.262205
N    -1.367241  -0.434478  1.936257
C    -2.088982  0.799432  2.214456
C    -1.658884  1.510608  3.525744
O    -1.482529  2.739840  3.520577
H    -1.657246  -1.228972  2.543019
H    -1.828667  1.535820  1.447133
C    -3.635353  0.593998  2.146749
C    -4.189359  -0.810365  2.458459
C    -3.869299  -1.343912  3.880381
O    -2.643856  -1.708660  4.055974
O    -4.781486  -1.357727  4.727237
H    -3.956582  0.859733  1.126851
H    -4.104407  1.330217  2.817066
H    -3.795718  -1.522908  1.716582
H    -5.280952  -0.772217  2.339835
N    -1.515194  0.716796  4.607197
C    -1.223025  1.249476  5.918051
H    -1.829059  -0.276253  4.522815
H    -1.989275  0.927209  6.637762
H    -1.213137  2.344554  5.858537
H    -0.241747  0.905981  6.283478
