27
Energy: -19683.712822 eV PBE+vdW (tier 2 basis)
C    -0.491705  -0.088269  -0.299164
C    -0.257956  -0.350122  1.176089
O    0.854595  -0.679350  1.609101
H    -0.318127  0.981868  -0.493405
H    -1.506150  -0.318113  -0.660869
H    0.258706  -0.653867  -0.861117
N    -1.311685  -0.188119  2.029682
C    -2.669150  0.233220  1.740790
C    -3.041778  1.387304  2.670811
O    -2.512851  1.530048  3.780829
H    -1.067649  -0.235972  3.017335
H    -2.730258  0.547263  0.688951
C    -3.693603  -0.926356  1.911742
C    -3.857590  -1.772646  0.640730
C    -4.504227  -0.914773  -0.491436
O    -5.742365  -1.030568  -0.654778
O    -3.707305  -0.116419  -1.088725
H    -4.679513  -0.515486  2.182544
H    -3.363998  -1.536629  2.768088
H    -4.510868  -2.627648  0.863096
H    -2.876944  -2.158536  0.319465
N    -4.014252  2.243950  2.241100
C    -4.825383  2.180042  1.030644
H    -4.284802  2.911244  2.957960
H    -5.782494  1.662514  1.197595
H    -5.031324  3.200891  0.681767
H    -4.311045  1.640919  0.223625
