27
Energy: -19683.2817627 eV PBE+vdW (tier 2 basis)
C    -0.894304  -1.164387  0.041771
C    -0.663361  -0.624081  1.434404
O    0.244728  -1.026524  2.172416
H    -1.908016  -1.596043  -0.020907
H    -0.831089  -0.369879  -0.715552
H    -0.134512  -1.924437  -0.160536
N    -1.527692  0.344150  1.870268
C    -2.667010  0.901915  1.155212
C    -2.379605  2.226026  0.436583
O    -2.865429  2.466375  -0.670595
H    -1.405884  0.564482  2.854684
H    -2.973192  0.178456  0.382077
C    -3.909973  1.010615  2.060645
C    -4.406214  -0.344696  2.588397
C    -4.872498  -1.391084  1.513284
O    -5.896413  -2.049293  1.813802
O    -4.152408  -1.488131  0.470848
H    -4.700447  1.488182  1.461827
H    -3.702616  1.695274  2.906324
H    -5.246483  -0.172417  3.275227
H    -3.609090  -0.826283  3.180797
N    -1.574863  3.174634  1.031287
C    -0.981162  3.211368  2.355646
H    -1.461775  3.993190  0.442741
H    -0.673458  4.243839  2.565100
H    -0.097663  2.561980  2.444920
H    -1.702797  2.926218  3.134476
