27
Energy: -19683.5886051 eV PBE+vdW (tier 2 basis)
C    -1.058924  -1.070328  -0.430567
C    -0.894278  -1.137278  1.081861
O    0.195250  -1.456078  1.591625
H    -0.184121  -0.569125  -0.862426
H    -1.088630  -2.093825  -0.830622
H    -1.974537  -0.545235  -0.728387
N    -2.021733  -0.858489  1.767139
C    -2.038072  -0.704137  3.218651
C    -1.159164  -1.751873  3.928546
O    -1.461914  -2.943522  3.963196
H    -2.746978  -0.199552  1.316392
H    -1.670286  0.307750  3.455832
C    -3.483612  -0.827553  3.771558
C    -4.625825  -0.378531  2.838151
C    -4.461488  1.030382  2.195847
O    -3.704856  1.062086  1.155932
O    -5.056320  1.992297  2.723032
H    -3.524004  -0.244127  4.704573
H    -3.647278  -1.881448  4.037985
H    -5.555627  -0.386026  3.423718
H    -4.731486  -1.120292  2.031679
N    -0.101612  -1.281791  4.679594
C    0.647471  -0.059116  4.418662
H    0.443546  -2.060511  5.039744
H    0.025141  0.830802  4.579184
H    1.042061  -0.037480  3.391174
H    1.480275  -0.008998  5.131925
