27
Energy: -19683.9170062 eV PBE+vdW (tier 2 basis)
C    -0.302755  -0.700470  -0.267187
C    -0.097436  -0.660970  1.243323
O    1.007520  -0.916834  1.749324
H    -0.013997  -1.693288  -0.637904
H    -1.337587  -0.486531  -0.561028
H    0.368326  0.030805  -0.737644
N    -1.204726  -0.334156  1.939566
C    -1.220049  -0.228827  3.380994
C    -1.242707  -1.548067  4.182813
O    -0.820124  -1.552070  5.344385
H    -2.163027  -0.159569  1.488915
H    -0.275878  0.230370  3.710383
C    -2.387984  0.682220  3.828306
C    -3.828188  0.174435  3.629815
C    -4.467513  0.163376  2.202512
O    -3.684319  0.029167  1.192502
O    -5.710464  0.251831  2.165420
H    -2.259836  1.645127  3.309108
H    -2.234526  0.875170  4.900516
H    -4.499626  0.779579  4.254658
H    -3.919694  -0.851818  4.026006
N    -1.751334  -2.697329  3.644450
C    -2.345342  -2.991612  2.346463
H    -1.653089  -3.472968  4.292100
H    -2.979459  -3.880781  2.461369
H    -1.583738  -3.204808  1.579776
H    -2.977450  -2.173982  1.985060
