27
Energy: -19683.7967625 eV PBE+vdW (tier 2 basis)
C    -0.255620  0.240097  -0.066192
C    -0.068117  0.383447  1.440981
O    0.818424  1.093325  1.908594
H    -0.822961  1.111812  -0.421242
H    -0.797404  -0.669949  -0.357646
H    0.726758  0.250766  -0.550880
N    -0.949326  -0.353598  2.188674
C    -1.220132  -0.105313  3.603646
C    -1.938445  1.267834  3.777480
O    -2.337783  1.923355  2.802966
H    -1.737664  -0.716739  1.666032
H    -1.980373  -0.853419  3.883263
C    0.010537  -0.344904  4.517620
C    -0.136991  -1.547829  5.452021
C    -1.177092  -1.445336  6.612878
O    -1.413662  -2.507311  7.224864
O    -1.671165  -0.289705  6.862279
H    0.203629  0.559935  5.107184
H    0.886010  -0.476404  3.870415
H    0.832350  -1.747978  5.938043
H    -0.368201  -2.460505  4.879172
N    -2.130318  1.601037  5.064356
C    -2.899885  2.770063  5.420863
H    -1.880306  0.879102  5.815085
H    -3.048864  2.766328  6.507034
H    -3.883004  2.780146  4.922182
H    -2.383442  3.701091  5.136550
