27
Energy: -19683.2651915 eV PBE+vdW (tier 2 basis)
C    -0.613498  -0.627827  0.341036
C    -0.265456  -0.077655  1.720293
O    0.893996  0.211909  2.026534
H    -0.814105  0.209359  -0.343431
H    -1.498839  -1.276146  0.366173
H    0.246696  -1.186591  -0.043087
N    -1.361061  0.075854  2.524164
C    -1.259699  0.322088  3.954787
C    -0.782602  1.735635  4.295525
O    -0.411742  2.569980  3.479435
H    -2.118392  -0.634796  2.401802
H    -2.311654  0.290428  4.294456
C    -0.535413  -0.845422  4.683817
C    -1.466530  -2.022093  5.028014
C    -2.227264  -2.740062  3.855286
O    -2.108813  -3.982969  3.802929
O    -2.938359  -1.999253  3.091316
H    -0.050876  -0.478625  5.602384
H    0.286845  -1.172877  4.033777
H    -0.886880  -2.791176  5.556541
H    -2.245573  -1.665834  5.728738
N    -0.823005  2.073964  5.646697
C    -1.696589  1.494083  6.656194
H    -0.613281  3.061885  5.760066
H    -1.449641  1.936611  7.629765
H    -1.547945  0.412188  6.740719
H    -2.768629  1.673770  6.458128
