27
Energy: -19683.5551883 eV PBE+vdW (tier 2 basis)
C    -0.278372  -0.069482  -0.092322
C    -0.118987  0.323942  1.371134
O    0.964406  0.700319  1.818895
H    0.336534  -0.958568  -0.283899
H    0.107035  0.744606  -0.718180
H    -1.315016  -0.284766  -0.382569
N    -1.255603  0.239704  2.114646
C    -1.285618  0.452891  3.551035
C    -0.761992  -0.795224  4.285686
O    -0.910152  -1.934262  3.826876
H    -2.053758  -0.234782  1.709440
H    -0.645537  1.316413  3.768517
C    -2.721798  0.770280  4.010453
C    -3.193903  2.170291  3.622322
C    -2.575501  3.339565  4.472787
O    -2.910961  4.490887  4.109151
O    -1.823353  2.999985  5.437590
H    -2.752046  0.690844  5.105568
H    -3.387295  -0.018116  3.611287
H    -4.287377  2.238136  3.739345
H    -2.993204  2.382723  2.560537
N    -0.176588  -0.587762  5.496884
C    0.178569  0.681724  6.123225
H    0.159433  -1.447144  5.920906
H    0.180256  0.545126  7.212747
H    -0.556787  1.471689  5.886980
H    1.180278  1.021589  5.812665
