27
Energy: -19684.1019411 eV PBE+vdW (tier 2 basis)
C    -0.175357  0.009647  -0.090324
C    -0.375751  0.421453  1.365676
O    0.101359  1.474006  1.801261
H    -0.601880  0.786154  -0.738757
H    -0.632662  -0.956071  -0.341268
H    0.901513  -0.036318  -0.297460
N    -1.117368  -0.440353  2.099663
C    -1.352619  -0.331737  3.528783
C    -1.772590  -1.758456  3.967713
O    -1.855230  -2.684586  3.130367
H    -1.355219  -1.375690  1.754186
H    -0.401415  -0.084915  4.029588
C    -2.394080  0.762917  3.909676
C    -1.901633  1.824430  4.900311
C    -1.762094  1.463784  6.409343
O    -1.531285  2.421127  7.172220
O    -1.891978  0.234246  6.762777
H    -3.303607  0.281029  4.298243
H    -2.678265  1.264276  2.973046
H    -2.581295  2.689255  4.865000
H    -0.926593  2.209868  4.562802
N    -2.026252  -1.872545  5.270224
C    -2.450099  -3.128958  5.842628
H    -1.974359  -0.969825  5.888088
H    -3.404373  -3.477175  5.413634
H    -2.578209  -2.987763  6.922140
H    -1.708658  -3.925800  5.671441
