27
Energy: -19683.704963 eV PBE+vdW (tier 2 basis)
C    -0.794648  -1.470680  0.642105
C    -0.236329  -0.231214  1.320383
O    0.982381  -0.034791  1.420537
H    -0.023435  -2.246722  0.673805
H    -0.996738  -1.238605  -0.414996
H    -1.737709  -1.841638  1.069696
N    -1.136997  0.679688  1.785066
C    -2.587531  0.551706  1.825049
C    -3.160537  1.962890  1.681039
O    -2.628926  2.922362  2.257784
H    -0.753122  1.513528  2.225745
H    -2.913727  -0.102549  1.010135
C    -3.073897  -0.118157  3.135404
C    -4.559874  -0.475870  3.163529
C    -5.059432  -1.445205  2.034137
O    -6.302664  -1.610237  1.987229
O    -4.169372  -1.941503  1.275352
H    -2.803499  0.537909  3.979843
H    -2.483406  -1.040535  3.234427
H    -5.192441  0.425780  3.136833
H    -4.794175  -0.960005  4.124925
N    -4.274805  2.145025  0.919300
C    -5.066400  1.193792  0.151898
H    -4.602240  3.106943  0.951106
H    -4.578828  0.214447  0.116051
H    -5.196094  1.560063  -0.877296
H    -6.053804  1.030849  0.605644
