27
Energy: -19683.3700328 eV PBE+vdW (tier 2 basis)
C    -0.540020  -0.422672  -0.450581
C    -0.244448  -0.608083  1.034115
O    0.868293  -1.006373  1.399545
H    -1.199084  -1.221411  -0.820027
H    -1.034738  0.531374  -0.673330
H    0.413325  -0.479494  -0.984397
N    -1.242688  -0.367334  1.934100
C    -2.507764  0.340197  1.708829
C    -3.352985  -0.218713  0.553440
O    -3.781707  0.466348  -0.377815
H    -0.968067  -0.153642  2.924331
H    -3.088147  0.101063  2.619260
C    -2.349542  1.874179  1.697141
C    -2.619032  2.522119  3.063853
C    -1.819576  2.032684  4.322566
O    -1.342867  0.847373  4.304684
O    -1.769331  2.850568  5.266656
H    -3.033551  2.291074  0.943409
H    -1.328956  2.112946  1.362065
H    -3.686541  2.385361  3.316792
H    -2.473267  3.609205  2.992564
N    -3.659986  -1.557603  0.610671
C    -3.486589  -2.466920  1.731941
H    -4.297841  -1.833900  -0.129560
H    -4.285832  -2.366190  2.485895
H    -2.521286  -2.280882  2.215361
H    -3.490506  -3.499203  1.358841
