27
Energy: -19683.3876627 eV PBE+vdW (tier 2 basis)
C    -0.295056  1.266513  0.614440
C    -0.126990  0.306580  1.757316
O    0.945247  0.165477  2.356768
H    0.699658  1.613727  0.318883
H    -0.798957  0.805525  -0.246550
H    -0.924008  2.141746  0.913358
N    -1.204069  -0.472468  2.155764
C    -2.621811  -0.503951  1.767686
C    -2.914207  -1.439113  0.573810
O    -4.067858  -1.691539  0.222977
H    -0.962084  -1.004890  2.985703
H    -3.133471  -0.983858  2.617721
C    -3.292870  0.869674  1.554136
C    -3.186156  1.830530  2.741687
C    -3.056287  3.339211  2.314354
O    -3.672169  4.170371  3.021420
O    -2.303371  3.551791  1.313704
H    -4.343521  0.660798  1.312823
H    -2.865415  1.368941  0.675122
H    -2.276393  1.614166  3.327150
H    -4.038963  1.721018  3.426210
N    -1.815430  -1.957119  -0.047651
C    -1.903674  -2.818834  -1.202529
H    -0.914948  -1.723826  0.357035
H    -1.486574  -3.817246  -0.999019
H    -1.375235  -2.388135  -2.066291
H    -2.966641  -2.923843  -1.450994
