32
Energy: -35247.7835209 eV PBE+vdW (tier 2 basis)
C    0.279898  0.122691  0.039829
C    -0.142969  -0.025521  1.461539
O    0.730473  -0.084474  2.390962
H    0.829550  1.069705  -0.063787
H    -0.558285  0.118911  -0.664345
H    0.980218  -0.681221  -0.222520
N    -1.445548  -0.081643  1.752496
C    -2.031345  -0.048888  3.108701
C    -1.835455  -1.425816  3.777661
O    -0.744072  -1.645501  4.409952
H    -2.097917  -0.022889  0.972856
H    -1.403991  0.633737  3.703268
C    -3.442751  0.598535  3.056353
C    -3.882508  1.128016  4.441099
C    -4.544549  -0.209464  2.347504
C    -4.072576  0.104926  5.563331
H    -3.267470  1.497908  2.441618
H    -4.827154  1.668247  4.283967
H    -3.161611  1.895322  4.764604
H    -5.347496  0.471416  2.040218
H    -5.032818  -0.946121  3.003603
H    -4.212788  -0.723255  1.431565
H    -4.473024  0.603541  6.453974
H    -3.130288  -0.372080  5.873179
H    -4.785474  -0.688624  5.301317
N    -2.749401  -2.364490  3.668569
C    -2.649779  -3.695466  4.273301
H    -3.611448  -2.117568  3.186207
H    -2.543705  -3.609293  5.361515
H    -1.787156  -4.236920  3.867833
H    -3.562760  -4.248727  4.040151
Ca    1.259200  -0.955994  4.238479
