32
Energy: -35247.8088824 eV PBE+vdW (tier 2 basis)
C    0.033579  -0.075400  -0.078098
C    0.008183  0.001717  1.413339
O    1.098581  0.060142  2.058232
H    0.619797  -0.955358  -0.377061
H    0.561310  0.804738  -0.471010
H    -0.959632  -0.132510  -0.534649
N    -1.187716  0.006246  2.022660
C    -1.576301  0.041550  3.456556
C    -1.031600  1.276225  4.188877
O    0.200406  1.362893  4.502059
H    -1.979089  -0.057818  1.387724
H    -2.664045  0.161530  3.407100
C    -1.379637  -1.289226  4.247957
C    -2.210483  -1.218809  5.549679
C    0.059621  -1.755452  4.519453
C    -2.317521  -2.544023  6.307344
H    -1.837697  -2.053774  3.598311
H    -3.226313  -0.881381  5.289863
H    -1.789173  -0.445779  6.215858
H    0.664814  -1.820130  3.600298
H    0.051521  -2.773698  4.926469
H    0.535409  -1.149049  5.317066
H    -1.359115  -2.869887  6.730979
H    -2.698214  -3.346763  5.661420
H    -3.014924  -2.440593  7.146678
N    -1.858131  2.247559  4.542030
C    -3.302861  2.374153  4.310302
H    -1.412611  3.001557  5.066985
H    -3.547903  2.245938  3.250090
H    -3.599613  3.384907  4.603725
H    -3.865519  1.658413  4.922060
Ca    1.993875  0.354084  3.952703
