32
Energy: -35246.0532388 eV PBE+vdW (tier 2 basis)
C    -0.001237  0.064911  0.099465
C    -0.174233  0.389440  1.541581
O    0.918315  0.571308  2.270381
H    0.613492  0.839728  -0.379204
H    -0.954005  -0.014251  -0.430868
H    0.537099  -0.888231  -0.001987
N    -1.319532  0.514560  2.134534
C    -2.693957  0.378020  1.635123
C    -3.465193  1.132211  2.763418
O    -2.869342  1.257819  3.852772
H    -1.433474  0.792472  3.156454
H    -2.787754  0.882809  0.665525
C    -3.080114  -1.137709  1.502090
C    -4.265901  -1.379470  0.552429
C    -3.292961  -1.810638  2.861244
C    -4.040138  -0.962110  -0.900277
H    -2.199566  -1.603724  1.024846
H    -5.177481  -0.918870  0.958538
H    -4.462607  -2.461443  0.580235
H    -3.428774  -2.889590  2.720502
H    -2.445225  -1.671635  3.545417
H    -4.190878  -1.430333  3.366873
H    -4.901538  -1.237525  -1.520505
H    -3.162052  -1.465997  -1.329964
H    -3.900491  0.122189  -1.031716
N    -4.702353  1.595852  2.569479
C    -5.487377  1.724587  1.345528
H    -5.099991  2.017389  3.408227
H    -5.831029  2.761331  1.248111
H    -6.363762  1.065196  1.368273
H    -4.885717  1.481720  0.466507
Ca    2.524692  0.865868  3.378759
