32
Energy: -35246.8916629 eV PBE+vdW (tier 2 basis)
C    0.097719  -0.284576  -0.277486
C    0.221000  -0.139676  1.201183
O    1.379736  0.014359  1.726357
H    -0.267847  -1.284526  -0.554226
H    1.076522  -0.123759  -0.738042
H    -0.620718  0.441696  -0.677136
N    -0.846916  -0.158804  2.027857
C    -1.947862  -1.135861  1.974020
C    -1.280643  -2.534767  2.220114
O    -0.004663  -2.650290  2.285244
H    -0.605961  0.138118  2.973874
H    -2.535154  -0.942552  2.886548
C    -2.964531  -0.957163  0.797533
C    -3.653821  0.431197  0.907937
C    -4.039165  -2.056417  0.772097
C    -2.909319  1.647963  0.357292
H    -2.423410  -1.014263  -0.157041
H    -3.943119  0.603790  1.958165
H    -4.602809  0.346461  0.360916
H    -4.595015  -2.121627  1.722310
H    -3.652812  -3.044772  0.491421
H    -4.782805  -1.803269  0.007550
H    -3.559453  2.530122  0.407893
H    -2.651492  1.514710  -0.703227
H    -1.999623  1.898463  0.916452
N    -2.048903  -3.577746  2.448312
C    -1.566274  -4.927432  2.756888
H    -3.055504  -3.438802  2.382962
H    -2.424714  -5.603811  2.768029
H    -1.085537  -4.945837  3.742849
H    -0.853893  -5.261463  1.994465
Ca    1.974917  -1.863076  2.553031
