32
Energy: -35247.6908201 eV PBE+vdW (tier 2 basis)
C    -0.089998  0.453930  -0.302106
C    -0.294483  0.556721  1.169973
O    0.558153  1.162662  1.901470
H    0.884965  -0.008299  -0.506811
H    -0.054599  1.469286  -0.723026
H    -0.875485  -0.115534  -0.809117
N    -1.385821  0.015696  1.721367
C    -1.783172  0.197314  3.126857
C    -0.862709  -0.641799  4.040500
O    0.132956  -0.036107  4.578081
H    -2.060961  -0.419444  1.096047
H    -1.526193  1.235133  3.389818
C    -3.311109  0.072560  3.322031
C    -4.065701  1.090452  2.428422
C    -3.658447  0.231771  4.808511
C    -3.697856  2.564526  2.606196
H    -3.633050  -0.928354  2.997007
H    -5.134978  0.952552  2.643108
H    -3.958404  0.812708  1.367243
H    -3.206432  -0.545715  5.439375
H    -4.743964  0.165092  4.946003
H    -3.339591  1.205703  5.203688
H    -4.351649  3.189246  1.986219
H    -2.667248  2.790416  2.289532
H    -3.821004  2.906448  3.641850
N    -1.016234  -1.933343  4.267467
C    -2.023117  -2.875633  3.768766
H    -0.324557  -2.320000  4.911602
H    -1.602853  -3.882817  3.845979
H    -2.257378  -2.682593  2.718362
H    -2.937644  -2.829955  4.372994
Ca    1.493292  1.395805  3.786800
