32
Energy: -35247.1568024 eV PBE+vdW (tier 2 basis)
C    -1.297444  1.491425  0.258032
C    -0.649841  0.712061  1.348753
O    0.170086  1.274148  2.152724
H    -2.010193  2.221604  0.670013
H    -1.801797  0.864141  -0.482019
H    -0.512701  2.079232  -0.239812
N    -0.920779  -0.598115  1.520223
C    -2.279369  -1.149805  1.535109
C    -3.031196  -0.427239  2.685397
O    -2.380416  0.220211  3.581751
H    -0.280839  -1.077440  2.156997
H    -2.785712  -0.911267  0.587086
C    -2.194168  -2.702875  1.670558
C    -1.460320  -3.269006  0.432551
C    -3.560019  -3.366455  1.871446
C    -1.012259  -4.723148  0.587144
H    -1.580383  -2.908098  2.568962
H    -0.577112  -2.650731  0.209567
H    -2.126578  -3.169628  -0.440590
H    -4.030749  -3.117648  2.830348
H    -3.438774  -4.455128  1.865842
H    -4.253725  -3.129011  1.049425
H    -0.449674  -5.037047  -0.300050
H    -1.855790  -5.416098  0.692512
H    -0.354307  -4.854738  1.457425
N    -4.346230  -0.478239  2.715613
C    -5.188891  0.113649  3.760365
H    -4.811199  -1.009619  1.982614
H    -6.222760  -0.192016  3.581555
H    -5.129667  1.208262  3.724685
H    -4.873131  -0.238820  4.748682
Ca    -0.630560  1.327626  4.148337
