32
Energy: -35246.6025668 eV PBE+vdW (tier 2 basis)
C    0.086898  -0.311044  0.751861
C    -0.257322  -0.112779  2.185455
O    0.663085  0.010544  3.063291
H    0.990214  -0.920402  0.641934
H    0.325205  0.685946  0.342376
H    -0.735084  -0.713905  0.153085
N    -1.541709  -0.061313  2.593194
C    -2.589735  -1.012331  2.160615
C    -1.941919  -2.427791  2.309474
O    -1.033066  -2.548255  3.221821
H    -1.659852  0.310183  3.534489
H    -3.311438  -0.992805  2.995654
C    -3.408745  -0.602885  0.896858
C    -3.400408  0.928663  0.662845
C    -4.847966  -1.126912  1.027560
C    -4.057832  1.802944  1.732956
H    -2.930817  -1.043238  0.007931
H    -3.919845  1.088360  -0.293467
H    -2.369746  1.269640  0.489346
H    -5.391082  -0.990733  0.084758
H    -5.390695  -0.572932  1.803987
H    -4.914390  -2.188087  1.293283
H    -3.951403  2.860273  1.462435
H    -3.605390  1.688822  2.729739
H    -5.132084  1.608742  1.833324
N    -2.245977  -3.523653  1.637717
C    -3.118578  -3.846488  0.501306
H    -1.747916  -4.334669  2.010011
H    -2.606725  -4.612574  -0.091134
H    -3.302856  -2.977667  -0.126981
H    -4.069198  -4.259532  0.860808
Ca    0.620086  -1.742058  4.317103
