32
Energy: -35247.907912 eV PBE+vdW (tier 2 basis)
C    -1.667237  -0.093069  -0.397344
C    -1.369867  0.240056  1.027693
O    -0.317916  -0.210728  1.574398
H    -0.836186  0.251817  -1.027725
H    -2.602514  0.340240  -0.765673
H    -1.710233  -1.186299  -0.501082
N    -2.240475  1.015163  1.689481
C    -2.277493  1.465765  3.103837
C    -1.118524  2.419555  3.436195
O    0.088742  2.021119  3.441344
H    -3.047578  1.302441  1.142962
H    -3.195349  2.067345  3.134657
C    -2.531684  0.354098  4.181633
C    -1.333565  -0.510795  4.645852
C    -3.724305  -0.506179  3.741016
C    -1.652039  -1.433841  5.829244
H    -2.841914  0.930767  5.070245
H    -0.524536  0.170233  4.989008
H    -0.992345  -1.142107  3.799351
H    -3.457929  -1.188784  2.922531
H    -4.566604  0.114543  3.407746
H    -4.092693  -1.114312  4.573465
H    -2.088043  -0.866953  6.661924
H    -0.744226  -1.923217  6.202531
H    -2.355274  -2.224668  5.547172
N    -1.436269  3.665340  3.751687
C    -0.492504  4.713806  4.143013
H    -2.418910  3.926618  3.716691
H    0.514873  4.295438  4.187466
H    -0.775532  5.109401  5.125598
H    -0.522480  5.526774  3.407324
Ca    1.050609  0.128431  3.149761
