32
Energy: -35247.0039844 eV PBE+vdW (tier 2 basis)
C    -1.291356  1.568563  0.714502
C    -0.555676  0.633253  1.612393
O    0.721922  0.571121  1.538967
H    -1.644948  1.043181  -0.186801
H    -0.596319  2.350705  0.390338
H    -2.160985  2.017607  1.202994
N    -1.169710  -0.153140  2.525974
C    -2.321153  -1.042863  2.281705
C    -1.778865  -2.188965  1.371786
O    -0.652712  -2.072863  0.768558
H    -0.501445  -0.548883  3.188952
H    -2.540546  -1.498512  3.260659
C    -3.640300  -0.345453  1.824918
C    -4.007212  0.749661  2.855457
C    -4.794679  -1.344927  1.659319
C    -5.061153  1.738561  2.355166
H    -3.472144  0.123191  0.843765
H    -3.105119  1.305499  3.151048
H    -4.361561  0.256416  3.775512
H    -4.693909  -1.988299  0.776351
H    -5.730553  -0.793389  1.516663
H    -4.938640  -1.963230  2.560239
H    -5.242431  2.509950  3.112988
H    -6.026723  1.260916  2.149154
H    -4.740485  2.249771  1.435798
N    -2.474522  -3.301828  1.272216
C    -2.091137  -4.466264  0.467412
H    -3.362246  -3.343750  1.768570
H    -2.918270  -5.180482  0.482590
H    -1.199333  -4.945917  0.889267
H    -1.892577  -4.165847  -0.567396
Ca    1.317050  -1.246305  0.583427
