32
Energy: -35246.1169519 eV PBE+vdW (tier 2 basis)
C    0.189776  -0.874175  0.733190
C    -0.046493  -0.354617  2.107867
O    0.992144  -0.285367  2.929439
H    1.054854  -0.365332  0.288199
H    -0.678555  -0.744015  0.081638
H    0.429337  -1.946760  0.781365
N    -1.196734  0.034501  2.559251
C    -2.514999  0.115804  1.921928
C    -3.242841  1.055631  2.942443
O    -2.659346  1.286983  4.021220
H    -1.345412  0.482386  3.523348
H    -2.420565  0.626927  0.952503
C    -3.165542  -1.302010  1.722869
C    -3.901104  -1.432227  0.370586
C    -3.997045  -1.759672  2.926757
C    -5.105331  -0.524763  0.112620
H    -2.309077  -1.992135  1.651497
H    -4.227898  -2.479985  0.297280
H    -3.171790  -1.295385  -0.444644
H    -4.921069  -1.181006  3.047469
H    -3.435295  -1.685225  3.867716
H    -4.285422  -2.810031  2.798117
H    -5.856039  -0.579371  0.912968
H    -5.612911  -0.826412  -0.811649
H    -4.814515  0.526850  -0.048216
N    -4.426379  1.554407  2.603214
C    -5.224046  2.408313  3.482365
H    -4.834254  1.261631  1.719159
H    -5.756561  3.147444  2.875603
H    -4.559782  2.918939  4.184638
H    -5.952559  1.812814  4.048365
Ca    2.520322  -0.128924  4.167534
