32
Energy: -35247.2317643 eV PBE+vdW (tier 2 basis)
C    0.024593  0.085823  0.141007
C    -0.005129  0.099145  1.630378
O    1.081281  0.045484  2.301957
H    0.416461  1.035666  -0.252851
H    -0.950651  -0.120346  -0.309013
H    0.737826  -0.691625  -0.167589
N    -1.173717  0.165821  2.301928
C    -2.225109  1.124719  1.973166
C    -1.720510  2.523863  2.444257
O    -0.513378  2.680027  2.845626
H    -1.099366  -0.046184  3.298401
H    -2.291569  1.193304  0.876081
C    -3.613307  0.665007  2.499028
C    -3.622741  0.266768  3.987514
C    -4.134951  -0.473288  1.612624
C    -3.190750  1.333472  4.995406
H    -4.299208  1.521585  2.375496
H    -3.034731  -0.657194  4.125403
H    -4.652644  -0.038488  4.219750
H    -3.479287  -1.353635  1.662372
H    -4.223078  -0.167735  0.561351
H    -5.130150  -0.788364  1.947342
H    -3.787286  2.251247  4.901328
H    -2.129119  1.620210  4.903795
H    -3.323204  0.967047  6.020432
N    -2.543533  3.546517  2.361283
C    -2.215819  4.927788  2.727322
H    -3.495831  3.355004  2.058045
H    -2.993314  5.584028  2.327603
H    -1.249092  5.211456  2.299187
H    -2.180675  5.034822  3.819125
Ca    1.414162  1.888536  3.353896
