32
Energy: -35247.9155967 eV PBE+vdW (tier 2 basis)
C    -0.100924  0.036570  -0.040051
C    -0.184795  -0.102242  1.444554
O    0.853596  0.074181  2.152275
H    0.251637  1.048272  -0.284259
H    -1.049153  -0.147755  -0.554850
H    0.657551  -0.662756  -0.418298
N    -1.373574  -0.412177  1.982365
C    -1.798998  -0.651111  3.385519
C    -1.541421  0.548891  4.311043
O    -0.367259  0.860035  4.687931
H    -2.121290  -0.530025  1.303551
H    -2.888509  -0.738984  3.291405
C    -1.359693  -2.016466  3.997506
C    -2.203309  -2.338444  5.252568
C    0.133723  -2.211510  4.308553
C    -3.710364  -2.466720  5.025588
H    -1.618412  -2.753661  3.219328
H    -1.995589  -1.593771  6.040259
H    -1.827714  -3.292107  5.650917
H    0.438650  -1.625962  5.199672
H    0.780758  -2.038327  3.432543
H    0.316103  -3.253931  4.599763
H    -4.203335  -1.514682  4.777171
H    -4.198986  -2.831115  5.936848
H    -3.940256  -3.183674  4.225619
N    -2.600848  1.213362  4.742695
C    -2.579147  2.342535  5.673642
H    -3.513112  0.914368  4.406511
H    -3.291608  2.153053  6.484553
H    -2.869594  3.261619  5.149421
H    -1.573460  2.454586  6.083761
Ca    1.609331  0.300948  4.111898
