32
Energy: -35247.8009846 eV PBE+vdW (tier 2 basis)
C    -0.338889  -0.493893  -0.197515
C    -0.315142  -0.308481  1.283091
O    0.780852  -0.432669  1.918966
H    -1.325202  -0.332403  -0.644028
H    -0.005027  -1.516510  -0.425711
H    0.386375  0.186818  -0.662838
N    -1.461822  -0.016963  1.907486
C    -1.760305  0.050618  3.356412
C    -1.112391  1.276995  4.010162
O    0.153879  1.326197  4.174721
H    -2.276946  0.038355  1.302570
H    -2.847334  0.181701  3.394171
C    -1.446542  -1.246101  4.155278
C    -2.008276  -2.504174  3.457638
C    -1.945541  -1.085933  5.598599
C    -3.519869  -2.526224  3.219072
H    -0.347106  -1.378475  4.193475
H    -1.729646  -3.361593  4.087552
H    -1.480169  -2.662494  2.505060
H    -1.741110  -1.999030  6.170165
H    -3.029913  -0.917620  5.636202
H    -1.458195  -0.255936  6.128630
H    -3.859887  -1.745372  2.521601
H    -4.093419  -2.419175  4.148195
H    -3.811906  -3.484626  2.773952
N    -1.860549  2.275158  4.444501
C    -3.320756  2.428948  4.391253
H    -1.339430  3.021208  4.907675
H    -3.559559  3.451066  4.697562
H    -3.814469  1.734944  5.082383
H    -3.697590  2.284274  3.372864
Ca    1.882884  0.254391  3.572854
