32
Energy: -35247.0588452 eV PBE+vdW (tier 2 basis)
C    -0.021955  0.322009  -0.258389
C    -0.191726  -0.163490  1.136964
O    0.817421  -0.516023  1.833704
H    0.719476  1.129684  -0.311001
H    -0.957958  0.625691  -0.734578
H    0.400414  -0.516370  -0.836758
N    -1.419704  -0.248408  1.697501
C    -2.406408  0.840229  1.679435
C    -1.681141  2.117854  2.155971
O    -0.650988  1.999508  2.918590
H    -1.440458  -0.794201  2.561027
H    -2.792807  0.979131  0.661792
C    -3.601914  0.421563  2.604405
C    -4.851372  1.294016  2.384615
C    -3.209133  0.334856  4.084668
C    -6.121139  0.707423  3.008640
H    -3.848078  -0.592758  2.244472
H    -5.017049  1.410397  1.302206
H    -4.680871  2.302251  2.795618
H    -2.328411  -0.301472  4.278237
H    -4.022175  -0.121230  4.659737
H    -3.018192  1.326733  4.518403
H    -6.989796  1.317786  2.735521
H    -6.078638  0.682617  4.104284
H    -6.309965  -0.313068  2.649120
N    -2.080195  3.326555  1.808993
C    -3.125327  3.757533  0.875770
H    -1.543745  4.079703  2.243879
H    -2.702672  4.526974  0.219756
H    -3.972366  4.183681  1.425814
H    -3.478720  2.922843  0.267479
Ca    1.033124  0.823675  3.515673
