32
Energy: -35247.7489722 eV PBE+vdW (tier 2 basis)
C    0.899515  -0.194943  0.358748
C    0.606738  -0.416420  1.806962
O    1.503872  -0.883215  2.567803
H    0.046883  0.188964  -0.210372
H    1.234080  -1.142408  -0.085347
H    1.737960  0.509764  0.269584
N    -0.620342  -0.109603  2.255302
C    -1.245935  -0.215438  3.595437
C    -0.518196  0.633720  4.645890
O    0.649893  0.327357  5.045685
H    -1.251132  0.236894  1.538061
H    -2.219184  0.258011  3.427071
C    -1.641128  -1.648483  4.119688
C    -0.621914  -2.513414  4.907453
C    -2.336179  -2.438277  3.004241
C    0.346815  -3.431140  4.136571
H    -2.410382  -1.399781  4.869886
H    -1.221692  -3.179055  5.545153
H    -0.115127  -1.882606  5.666477
H    -2.750015  -3.373278  3.402038
H    -1.653770  -2.697307  2.184328
H    -3.174936  -1.874016  2.575980
H    0.893319  -2.958006  3.300218
H    -0.197138  -4.247473  3.645728
H    1.048588  -3.941570  4.819357
N    -1.135805  1.678485  5.177660
C    -2.466179  2.223471  4.876196
H    -0.592697  2.162784  5.893626
H    -2.615997  3.103784  5.507179
H    -3.256427  1.500057  5.110958
H    -2.537382  2.541603  3.829177
Ca    2.020821  -1.267081  4.592613
