32
Energy: -35247.8243918 eV PBE+vdW (tier 2 basis)
C    -0.615119  -1.887206  0.187452
C    -0.665785  -1.073451  1.435466
O    0.161125  -0.116290  1.614145
H    0.389473  -2.312877  0.063733
H    -0.785910  -1.221128  -0.670761
H    -1.355635  -2.693168  0.167390
N    -1.591615  -1.352512  2.354870
C    -1.906247  -0.538392  3.543555
C    -0.822445  -0.773394  4.621342
O    0.262816  -0.100654  4.558423
H    -2.252257  -2.098114  2.136756
H    -1.790848  0.517577  3.247352
C    -3.370064  -0.729644  4.002593
C    -4.376609  -0.635226  2.822386
C    -3.696027  0.312950  5.082817
C    -4.770022  -1.960957  2.163018
H    -3.482066  -1.743009  4.434330
H    -4.006401  0.082530  2.072046
H    -5.293101  -0.180815  3.221714
H    -3.718750  1.323809  4.651453
H    -2.983817  0.318759  5.919347
H    -4.688353  0.116775  5.504842
H    -3.958378  -2.465867  1.611869
H    -5.564377  -1.797318  1.424692
H    -5.154153  -2.676693  2.902080
N    -1.028891  -1.670231  5.562343
C    -0.107575  -2.016792  6.645319
H    -1.932707  -2.140476  5.554205
H    -0.630480  -1.925390  7.604399
H    0.747160  -1.337866  6.627097
H    0.234863  -3.051859  6.523034
Ca    1.363195  0.882931  3.025694
