32
Energy: -35247.8494526 eV PBE+vdW (tier 2 basis)
C    2.410660  1.784064  2.981386
C    1.399839  0.768206  3.401231
O    1.667957  -0.033673  4.347496
H    3.333838  1.264399  2.689314
H    2.662376  2.414947  3.845098
H    2.079493  2.420821  2.154941
N    0.226511  0.739681  2.752159
C    -0.958801  -0.149649  2.892063
C    -1.566040  -0.071048  4.300929
O    -1.021881  -0.639694  5.298670
H    0.138822  1.428685  2.009605
H    -1.688269  0.312712  2.214197
C    -0.763145  -1.588751  2.312565
C    -2.121031  -2.236005  1.939599
C    0.126055  -2.567974  3.097899
C    -2.970742  -2.810967  3.076197
H    -0.240559  -1.399971  1.360984
H    -1.899945  -3.041507  1.224187
H    -2.709716  -1.502142  1.367059
H    0.234948  -3.500882  2.529222
H    -0.349481  -2.885593  4.046460
H    1.152964  -2.188802  3.230757
H    -2.469821  -3.635586  3.600846
H    -3.898169  -3.227304  2.665265
H    -3.267761  -2.063663  3.824494
N    -2.698645  0.596912  4.444437
C    -3.424193  0.718063  5.712456
H    -3.113049  1.024822  3.621198
H    -4.308946  1.337335  5.546025
H    -2.788392  1.189251  6.470714
H    -3.734595  -0.272815  6.066732
Ca    0.900718  -1.489873  5.675816
