32
Energy: -35246.073536 eV PBE+vdW (tier 2 basis)
C    0.303096  -0.523908  0.693927
C    -0.202294  0.524147  1.621488
O    0.499891  1.642938  1.731848
H    0.550828  -0.072470  -0.275583
H    -0.418076  -1.331325  0.540860
H    1.228258  -0.958399  1.100532
N    -1.282488  0.421071  2.330277
C    -2.282889  -0.647842  2.448150
C    -3.473094  0.162196  3.050534
O    -3.209598  1.257457  3.581428
H    -1.654292  1.205334  2.945297
H    -2.544778  -1.026206  1.449683
C    -1.751418  -1.828893  3.326147
C    -2.710874  -3.051235  3.331387
C    -1.315972  -1.381811  4.724263
C    -3.708650  -3.173008  4.488278
H    -0.847935  -2.160964  2.787356
H    -2.073982  -3.947404  3.344143
H    -3.237364  -3.103792  2.362682
H    -0.534225  -0.610690  4.686003
H    -0.898552  -2.233873  5.274338
H    -2.148779  -0.981268  5.315566
H    -3.198852  -3.336154  5.445374
H    -4.358625  -4.041071  4.323249
H    -4.355617  -2.295983  4.610798
N    -4.693835  -0.359392  2.936802
C    -5.895849  0.249597  3.503204
H    -4.788865  -1.266549  2.491229
H    -6.691889  0.260236  2.750725
H    -5.661028  1.273297  3.805162
H    -6.236569  -0.316636  4.380004
Ca    1.515110  3.329198  1.887065
