32
Energy: -35246.4325914 eV PBE+vdW (tier 2 basis)
C    0.478815  -0.117246  0.366927
C    0.115182  -0.040097  1.806524
O    1.058045  0.100915  2.701503
H    1.026751  0.789228  0.074239
H    -0.399692  -0.230081  -0.275747
H    1.153430  -0.970421  0.207265
N    -1.130429  -0.114729  2.192218
C    -1.647080  -0.102325  3.557081
C    -3.099358  -0.649556  3.348370
O    -3.548629  -0.648636  2.198737
H    -1.932685  -0.267694  1.535110
H    -1.063983  -0.817962  4.159609
C    -1.589361  1.333797  4.184266
C    -1.356283  1.295753  5.706006
C    -2.802258  2.193657  3.811159
C    0.071462  0.942819  6.137008
H    -0.703450  1.821992  3.733351
H    -2.056042  0.603332  6.197439
H    -1.594436  2.284395  6.122762
H    -2.980302  2.199031  2.728836
H    -2.643261  3.231956  4.126626
H    -3.717040  1.833304  4.299338
H    0.189193  0.898646  7.227379
H    0.763701  1.752561  5.804335
H    0.367446  -0.065772  5.766934
N    -3.776225  -1.059719  4.428174
C    -5.152487  -1.559286  4.343019
H    -3.302498  -1.118737  5.321801
H    -5.602185  -1.520818  5.339129
H    -5.172437  -2.591989  3.972448
H    -5.726807  -0.928467  3.657338
Ca    2.198124  0.537530  4.289541
