32
Energy: -35246.9979514 eV PBE+vdW (tier 2 basis)
C    0.079569  0.232487  1.477233
C    -0.918962  0.602045  2.521657
O    -0.607159  1.465737  3.414327
H    -0.374213  0.181082  0.481296
H    0.518085  -0.755270  1.689525
H    0.885088  0.973123  1.480596
N    -2.154488  0.057354  2.575688
C    -2.460741  -1.380000  2.467819
C    -1.755104  -2.066225  3.678915
O    -0.992024  -1.392191  4.460415
H    -2.766720  0.556521  3.221732
H    -3.540738  -1.449016  2.674004
C    -2.260106  -2.004435  1.050309
C    -2.964307  -1.120574  -0.009064
C    -2.755292  -3.459832  0.970339
C    -4.483041  -0.992961  0.120669
H    -1.185155  -2.017897  0.820797
H    -2.716248  -1.557772  -0.987062
H    -2.518933  -0.114781  -0.013000
H    -3.755165  -3.598405  1.409145
H    -2.052278  -4.178311  1.412434
H    -2.842563  -3.750750  -0.083711
H    -4.794388  -0.493708  1.050948
H    -4.993324  -1.962927  0.068624
H    -4.875914  -0.382122  -0.700729
N    -2.002043  -3.334359  3.927948
C    -1.452263  -4.092764  5.056097
H    -2.609468  -3.827368  3.275910
H    -0.357759  -4.040095  5.054869
H    -1.761782  -5.135560  4.950455
H    -1.838116  -3.700551  6.004980
Ca    -0.215645  0.443338  5.252214
