32
Energy: -35247.8070345 eV PBE+vdW (tier 2 basis)
C    -0.201341  0.031400  -0.134030
C    -0.080108  0.005122  1.354502
O    1.055094  -0.178589  1.889413
H    0.445272  0.826257  -0.530790
H    -1.224111  0.187947  -0.491256
H    0.180263  -0.917338  -0.536195
N    -1.195720  0.180361  2.079563
C    -1.441362  0.170737  3.544413
C    -0.644026  1.255592  4.281436
O    0.615138  1.143746  4.445931
H    -2.037777  0.308541  1.524546
H    -2.497175  0.452354  3.612159
C    -1.383243  -1.230924  4.230550
C    -2.145218  -1.188737  5.576213
C    -0.004342  -1.885236  4.419363
C    -3.663068  -1.039733  5.457358
H    -1.948548  -1.884326  3.545661
H    -1.723974  -0.396265  6.219099
H    -1.929215  -2.128726  6.104070
H    0.540165  -2.005170  3.466656
H    -0.132708  -2.905842  4.801942
H    0.587777  -1.370148  5.201340
H    -4.100096  -1.867258  4.882962
H    -3.979798  -0.101185  4.979584
H    -4.125274  -1.054240  6.451530
N    -1.263691  2.308525  4.791247
C    -2.681546  2.683270  4.761253
H    -0.644865  2.937843  5.305650
H    -3.232170  2.193482  5.573981
H    -3.137987  2.439197  3.797159
H    -2.745316  3.767057  4.898019
Ca    2.167970  -0.099715  3.687668
