32
Energy: -35247.4414109 eV PBE+vdW (tier 2 basis)
C    0.346811  0.011731  0.167430
C    0.113424  0.148280  1.631649
O    1.045254  0.559775  2.403989
H    1.206945  -0.648627  -0.007282
H    0.614708  0.996674  -0.241427
H    -0.523809  -0.374617  -0.372066
N    -1.083562  -0.154986  2.142442
C    -1.423684  0.084918  3.551743
C    -0.634393  -0.867083  4.481070
O    0.309974  -0.323611  5.165994
H    -1.826396  -0.449642  1.510668
H    -0.964815  1.055042  3.796768
C    -2.935788  0.336903  3.829316
C    -3.975572  -0.754385  3.489920
C    -3.309960  1.695493  3.209495
C    -4.170779  -1.132878  2.017240
H    -2.972865  0.460236  4.924763
H    -4.931365  -0.360759  3.864899
H    -3.796713  -1.651306  4.095829
H    -2.678122  2.506625  3.596360
H    -4.348110  1.944173  3.459095
H    -3.231586  1.702944  2.114036
H    -5.051975  -1.776731  1.908561
H    -3.336952  -1.715199  1.587813
H    -4.345227  -0.257720  1.377049
N    -0.821448  -2.168308  4.603988
C    -1.668482  -3.106436  3.868074
H    -0.211826  -2.593527  5.305679
H    -1.043181  -3.944679  3.537731
H    -2.113550  -2.630669  2.994641
H    -2.459910  -3.495558  4.519575
Ca    1.905493  0.816328  4.329126
