32
Energy: -35247.5139774 eV PBE+vdW (tier 2 basis)
C    1.039862  0.846292  0.522107
C    0.592017  -0.317733  1.336646
O    1.427292  -0.970559  2.047383
H    1.849217  0.533677  -0.151231
H    1.462993  1.605095  1.196251
H    0.233811  1.299187  -0.063977
N    -0.698502  -0.669596  1.325770
C    -1.285479  -1.690677  2.201969
C    -0.853541  -3.107955  1.738516
O    0.139574  -3.624060  2.371394
H    -1.341353  -0.109456  0.768685
H    -0.749346  -1.607785  3.157780
C    -2.764827  -1.365393  2.576022
C    -3.377872  -2.489658  3.435504
C    -3.724685  -0.931217  1.460438
C    -2.644745  -2.803609  4.741924
H    -2.639570  -0.488274  3.234793
H    -3.487255  -3.404007  2.828486
H    -4.405032  -2.179041  3.672821
H    -4.165206  -1.773764  0.919031
H    -3.294572  -0.238280  0.719752
H    -4.556544  -0.382114  1.918589
H    -1.659663  -3.268912  4.585099
H    -3.225845  -3.512525  5.343413
H    -2.507209  -1.899938  5.352567
N    -1.380319  -3.798765  0.746323
C    -2.436837  -3.466647  -0.208655
H    -0.955455  -4.720552  0.630000
H    -3.408855  -3.830023  0.146511
H    -2.482555  -2.390134  -0.381411
H    -2.201476  -3.963935  -1.155311
Ca    1.986917  -2.779113  2.999242
