27
Energy: -34143.8526404 eV PBE+vdW (tier 2 basis)
C    -0.356187  -0.136152  -0.144976
C    -0.175196  -0.496831  1.298607
O    0.923851  -0.778739  1.794700
H    0.621171  -0.152076  -0.633790
H    -0.798942  0.863808  -0.256801
H    -1.019921  -0.849973  -0.653906
N    -1.299458  -0.520591  2.105983
C    -1.123605  -0.588895  3.564426
C    -0.842488  -2.033025  4.019329
O    -1.763355  -2.696550  4.659383
H    -0.259375  0.024463  3.860854
C    -2.445354  -0.013865  4.091765
C    -3.478192  -0.370338  3.007444
C    -2.673482  -0.162940  1.715298
H    -2.365348  1.079835  4.155906
H    -2.664746  -0.313462  5.136423
H    -4.388719  0.238265  3.040003
H    -3.797922  -1.443284  3.024089
H    -2.739935  0.892414  1.405700
H    -3.032228  -0.783411  0.885846
N    0.318903  -2.535593  3.716724
C    0.807594  -3.877718  4.012148
H    0.877037  -1.895106  3.089976
H    0.093960  -4.417221  4.639074
H    1.770209  -3.794922  4.531043
H    0.966877  -4.420040  3.071523
Ca    -3.705151  -2.610051  5.205228
