27
Energy: -34143.8066936 eV PBE+vdW (tier 2 basis)
C    -0.161730  0.113552  -0.223678
C    -0.178782  -0.365501  1.184271
O    0.870986  -0.979392  1.619140
H    -0.558865  1.130817  -0.322000
H    -0.779654  -0.547619  -0.851114
H    0.864766  0.070802  -0.598959
N    -1.242237  -0.177650  1.966001
C    -1.230867  -0.291820  3.457418
C    -1.054784  -1.734471  3.958360
O    -1.847188  -2.198776  4.913188
H    -0.345402  0.251235  3.826799
C    -2.528375  0.414843  3.872817
C    -3.460907  0.225769  2.671636
C    -2.523435  0.405031  1.482041
H    -2.318746  1.480256  4.032780
H    -2.931259  0.016195  4.808499
H    -4.284624  0.946607  2.654432
H    -3.898494  -0.783113  2.663883
H    -2.375544  1.469233  1.245199
H    -2.856040  -0.113974  0.576652
N    -0.072945  -2.418570  3.478634
C    0.176736  -3.753052  3.976558
H    0.622463  -1.617471  2.454891
H    0.460365  -3.738667  5.051755
H    1.022998  -4.207758  3.450343
H    -0.691095  -4.425548  3.809806
Ca    -2.194343  -3.676959  6.206648
