27
Energy: -34145.7144082 eV PBE+vdW (tier 2 basis)
C    -0.259604  -0.654526  0.065710
C    -0.178913  -0.216527  1.492918
O    0.950906  0.155668  1.972446
H    -0.743871  0.125285  -0.542647
H    -0.842094  -1.576183  -0.052889
H    0.750594  -0.806261  -0.323316
N    -1.269760  -0.200717  2.260812
C    -1.290834  0.345857  3.653896
C    -0.490788  -0.522672  4.646941
O    0.754602  -0.294351  4.808687
H    -0.771473  1.316545  3.638059
C    -2.790461  0.556532  3.951810
C    -3.448289  0.626678  2.568925
C    -2.657407  -0.398676  1.763055
H    -2.947167  1.452889  4.560835
H    -3.224666  -0.283616  4.512982
H    -3.334623  1.626460  2.128544
H    -4.517942  0.394769  2.600959
H    -2.703342  -0.236356  0.683147
H    -2.975895  -1.430698  1.974219
N    -1.100638  -1.475188  5.323635
C    -0.470654  -2.361075  6.305269
H    -2.098317  -1.595015  5.165789
H    0.446919  -1.899035  6.677016
H    -0.238961  -3.330991  5.846232
H    -1.166983  -2.516780  7.135603
Ca    2.329663  0.346986  3.529362
