27
Energy: -34145.4912617 eV PBE+vdW (tier 2 basis)
C    0.376230  -0.827040  0.550076
C    -0.047161  0.238253  1.505596
O    0.695425  1.267289  1.686762
H    0.355664  -1.820930  1.017251
H    1.384524  -0.616197  0.185782
H    -0.309787  -0.864586  -0.310185
N    -1.208763  0.128706  2.158382
C    -1.760126  1.228067  2.990586
C    -0.926385  1.509481  4.262275
O    -0.089361  2.478795  4.199427
H    -1.652622  2.164211  2.423805
C    -3.259525  0.886704  3.127661
C    -3.401257  -0.606336  2.788952
C    -2.225723  -0.921606  1.863081
H    -3.803437  1.497826  2.396885
H    -3.667118  1.148869  4.109976
H    -4.356948  -0.813686  2.296255
H    -3.369632  -1.235381  3.684298
H    -2.507774  -0.844853  0.803501
H    -1.800655  -1.917775  2.033378
N    -1.026106  0.848177  5.402426
C    -1.828606  -0.318722  5.778521
H    -0.427159  1.228974  6.136371
H    -1.423689  -0.708805  6.716469
H    -1.753069  -1.103619  5.020945
H    -2.877813  -0.046085  5.942168
Ca    1.366874  2.962268  2.725362
