27
Energy: -34145.0102206 eV PBE+vdW (tier 2 basis)
C    1.086525  -0.473850  0.591898
C    0.506383  -0.143925  1.931008
O    1.235057  0.431289  2.813477
H    0.574058  -1.303176  0.094246
H    2.142527  -0.732951  0.736322
H    1.062681  0.403050  -0.074974
N    -0.786416  -0.405857  2.199546
C    -1.820248  -0.185706  1.180986
C    -1.801459  1.325124  0.816322
O    -1.063615  2.135300  1.482934
H    -1.631409  -0.777264  0.275896
C    -3.115445  -0.616745  1.900078
C    -2.872782  -0.187520  3.353275
C    -1.373338  -0.415752  3.569785
H    -3.207221  -1.707376  1.813865
H    -4.018554  -0.173304  1.469034
H    -3.476865  -0.763101  4.061962
H    -3.132797  0.870888  3.492593
H    -1.148436  -1.393967  4.015932
H    -0.912735  0.335129  4.228722
N    -2.547743  1.777183  -0.172115
C    -3.443866  1.037889  -1.067493
H    -2.503043  2.787442  -0.316248
H    -3.218476  -0.031236  -1.057356
H    -4.488674  1.193309  -0.769503
H    -3.306521  1.416593  -2.086086
Ca    0.550410  2.465534  2.881893
