27
Energy: -34145.0548796 eV PBE+vdW (tier 2 basis)
C    1.068135  -0.126954  0.371407
C    0.548381  0.002277  1.765917
O    1.272548  0.540890  2.674353
H    0.545101  -0.887259  -0.216458
H    2.133434  -0.384537  0.433279
H    1.008381  0.835936  -0.159981
N    -0.692382  -0.414241  2.079437
C    -1.830381  -0.179068  1.184371
C    -1.944576  1.347082  0.955321
O    -1.226888  2.154213  1.646360
H    -1.692393  -0.687520  0.221144
C    -3.061297  -0.737632  1.968041
C    -2.456048  -1.420602  3.207016
C    -1.166697  -0.641595  3.459603
H    -3.643035  -1.427523  1.349109
H    -3.729108  0.083338  2.261586
H    -2.212500  -2.469379  2.994856
H    -3.131886  -1.400564  4.068278
H    -0.404575  -1.179952  4.031876
H    -1.395757  0.310160  3.983038
N    -2.800507  1.814293  0.068279
C    -3.725653  1.063416  -0.787626
H    -2.855360  2.832461  0.013355
H    -4.709967  0.984130  -0.308768
H    -3.832603  1.600943  -1.735014
H    -3.340653  0.061637  -0.997847
Ca    0.391285  2.463049  3.048068
