27
Energy: -34145.0849499 eV PBE+vdW (tier 2 basis)
C    -1.121599  0.720504  -0.265605
C    -0.470814  0.166637  0.958839
O    0.800215  0.017550  1.001299
H    -2.192373  0.503743  -0.323357
H    -0.615302  0.286826  -1.138138
H    -0.973751  1.809981  -0.329213
N    -1.201859  -0.152279  2.043933
C    -2.305484  0.697196  2.505993
C    -1.743144  2.121196  2.749999
O    -0.480021  2.316753  2.777252
H    -3.116285  0.742770  1.766029
C    -2.771012  0.029852  3.839675
C    -2.017507  -1.309392  3.886727
C    -0.717284  -1.013278  3.143300
H    -3.858229  -0.095116  3.861089
H    -2.495128  0.661916  4.694597
H    -2.572519  -2.092000  3.353682
H    -1.844667  -1.657707  4.910378
H    -0.205453  -1.889377  2.732508
H    -0.014025  -0.476985  3.815873
N    -2.613247  3.088361  2.958610
C    -2.306869  4.482807  3.288585
H    -3.600905  2.840861  2.909735
H    -1.224815  4.625652  3.295821
H    -2.717907  4.722990  4.276608
H    -2.764072  5.141681  2.541043
Ca    1.496056  1.524861  2.364739
