27
Energy: -34145.0805145 eV PBE+vdW (tier 2 basis)
C    -0.392302  -0.470705  -0.102279
C    -0.197474  -0.303853  1.368878
O    0.969745  -0.426734  1.881501
H    -0.044061  0.420571  -0.647585
H    -1.430445  -0.673643  -0.381656
H    0.242401  -1.304194  -0.431039
N    -1.233373  0.008165  2.170209
C    -2.245904  0.992077  1.770250
C    -1.516118  2.320586  1.449199
O    -0.287586  2.478386  1.764582
H    -2.807507  0.658023  0.887133
C    -3.164396  1.131047  3.026622
C    -2.700299  0.010822  3.972238
C    -1.218369  -0.146819  3.639983
H    -4.221192  1.044601  2.755000
H    -3.023232  2.116345  3.490938
H    -3.224821  -0.928641  3.755798
H    -2.869287  0.254995  5.026215
H    -0.781546  -1.114079  3.908048
H    -0.633358  0.655083  4.138450
N    -2.209096  3.284260  0.878359
C    -1.694799  4.626370  0.577278
H    -3.182344  3.093305  0.648162
H    -2.488906  5.196386  0.088813
H    -1.399411  5.136919  1.501425
H    -0.833116  4.559731  -0.096718
Ca    1.559797  1.560994  2.438197
