21
Energy: -240073.394141 eV PBE+vdW (tier 2 basis)
N    -0.191683  0.697086  0.459015
C    0.348844  -0.255206  1.407942
C    1.138387  -1.324867  0.655885
O    1.568588  -1.056906  -0.516768
H    -0.461143  1.568679  0.913454
H    0.476976  0.917001  -0.277696
H    1.098869  0.171573  2.115988
C    -0.827245  -0.829977  2.253560
C    -0.485568  -1.333575  3.613986
N    0.464457  -2.316326  3.844551
C    -0.990963  -1.009729  4.848122
C    0.547016  -2.591157  5.150421
N    -0.338177  -1.802465  5.770457
H    -1.349315  -1.608822  1.678183
H    -1.553905  -0.017623  2.374868
H    -1.754559  -0.298647  5.136680
H    1.204337  -3.309751  5.624090
H    -0.499208  -1.795329  6.775016
O    1.396368  -2.475308  1.183722
H    1.013497  -2.715860  3.072166
Ba    2.488222  -3.248753  -1.022644
