21
Energy: -240072.749509 eV PBE+vdW (tier 2 basis)
N    -0.957209  -0.681894  0.909730
C    0.170372  -0.290950  1.811033
C    1.279205  0.315020  0.916030
O    1.055174  0.612969  -0.236990
H    -0.842103  -0.068400  0.079373
H    -0.723797  -1.608890  0.529707
H    -0.163054  0.547332  2.450182
C    0.623014  -1.448310  2.708811
C    -0.227277  -1.713827  3.915995
N    -1.622554  -1.617640  3.957803
C    0.217094  -2.130226  5.147428
C    -1.984279  -1.978582  5.199658
N    -0.901317  -2.293426  5.929166
H    1.640151  -1.233767  3.058714
H    0.712726  -2.361630  2.094471
H    1.215710  -2.323323  5.520761
H    -2.993984  -2.021017  5.595597
H    -0.908957  -2.596392  6.900503
O    2.420489  0.499964  1.579763
H    3.071823  0.930131  0.986141
Ba    -3.300225  -0.705140  2.182124
