21
Energy: -240073.262165 eV PBE+vdW (tier 2 basis)
N    -0.698526  -0.025314  1.783367
C    0.734978  -0.219721  1.884156
C    1.150183  -1.066277  0.673329
O    0.648605  -2.230246  0.471159
H    -1.017254  0.821408  2.249176
H    -1.250149  -0.819691  2.100826
H    1.210685  0.753154  1.708101
C    1.326488  -0.719949  3.243603
C    0.626459  -1.850054  3.925815
N    0.454969  -1.872608  5.306630
C    0.059193  -3.016982  3.476146
C    -0.172313  -2.989917  5.691140
N    -0.419999  -3.692155  4.582438
H    1.315706  0.144811  3.923045
H    2.389858  -0.976899  3.106896
H    -0.029075  -3.397596  2.467010
H    -0.431413  -3.269585  6.705526
H    -0.894052  -4.591908  4.570160
O    1.942337  -0.541907  -0.185102
H    0.769914  -1.149247  5.949576
Ba    1.323405  -2.090319  -1.960994
