21
Energy: -240073.689279 eV PBE+vdW (tier 2 basis)
N    0.721486  -1.322025  -0.216368
C    0.423746  -0.499126  0.988316
C    1.739062  -0.113071  1.651527
O    2.791231  -0.743071  1.475119
H    -0.156184  -1.748412  -0.529173
H    0.989594  -0.695441  -0.983169
H    -0.098723  0.430542  0.716295
C    -0.497954  -1.255086  1.977183
C    0.072920  -2.379154  2.793656
N    0.991179  -3.331012  2.346737
C    -0.317622  -2.708333  4.070729
C    1.129712  -4.208362  3.348074
N    0.354412  -3.861405  4.392673
H    -1.356948  -1.618064  1.387334
H    -0.918034  -0.514330  2.669605
H    -1.016274  -2.237662  4.752290
H    1.762334  -5.090239  3.352437
H    0.273992  -4.372596  5.268308
O    1.631235  0.929386  2.443060
H    2.489561  1.135146  2.872885
Ba    2.786275  -3.079683  0.403481
