21
Energy: -240073.585187 eV PBE+vdW (tier 2 basis)
N    2.231517  -2.453631  0.661559
C    1.357080  -1.308810  0.502152
C    1.991086  0.072085  0.790199
O    1.252944  1.121748  0.802323
H    2.989739  -2.443309  -0.019606
H    2.667189  -2.469650  1.584999
H    1.063299  -1.253556  -0.561236
C    0.061567  -1.482361  1.329008
C    -0.756404  -2.664525  0.913296
N    -2.146466  -2.660092  0.962238
C    -0.413611  -3.917546  0.467271
C    -2.638428  -3.841592  0.567407
N    -1.590306  -4.610381  0.262030
H    -0.541248  -0.568062  1.245176
H    0.326302  -1.588107  2.394515
H    0.566871  -4.340928  0.296822
H    -3.684263  -4.117055  0.505244
H    -1.659526  -5.569764  -0.069089
O    3.254980  0.154672  0.968832
H    -2.725101  -1.878043  1.257734
Ba    3.214781  2.624904  1.080128
