21
Energy: -240073.368108 eV PBE+vdW (tier 2 basis)
N    -0.724199  -0.276570  -0.054535
C    -0.239662  -0.102398  1.288016
C    1.091305  0.653857  1.252170
O    1.737963  0.741699  0.158483
H    -0.132692  -0.871183  -0.632523
H    -1.682652  -0.617747  -0.084955
H    -0.950386  0.552920  1.817949
C    -0.078569  -1.417659  2.154450
C    -0.312397  -1.254269  3.618184
N    0.231600  -0.218687  4.364928
C    -1.057150  -1.996907  4.500812
C    -0.152538  -0.313319  5.642543
N    -0.933588  -1.395088  5.736645
H    0.908767  -1.871321  1.973761
H    -0.815014  -2.137042  1.776189
H    -1.648904  -2.891010  4.351456
H    0.108776  0.358375  6.450836
H    -1.371914  -1.716517  6.596712
O    1.560663  1.208171  2.323099
H    0.811808  0.517063  3.932428
Ba    3.320703  2.433850  0.891848
