21
Energy: -240073.681999 eV PBE+vdW (tier 2 basis)
N    0.418327  -0.605319  -0.353341
C    0.116983  0.024978  0.945130
C    1.393145  0.557678  1.599272
O    1.387258  0.860199  2.842086
H    1.229935  -0.146502  -0.773613
H    -0.363515  -0.484418  -0.999598
H    -0.486879  0.946279  0.820675
C    -0.719978  -0.899096  1.861749
C    -0.186371  -2.286212  2.028226
N    0.431560  -2.949909  0.981249
C    -0.260130  -3.188837  3.059823
C    0.729379  -4.200422  1.335762
N    0.310219  -4.360013  2.599356
H    -1.730391  -0.967435  1.428464
H    -0.838002  -0.428452  2.844670
H    -0.679471  -3.104319  4.053992
H    1.215614  -4.950745  0.724382
H    0.389391  -5.225089  3.127858
O    2.419772  0.788310  0.868130
H    0.620563  -2.395196  0.110112
Ba    3.529588  2.111520  2.669615
