21
Energy: -240073.346909 eV PBE+vdW (tier 2 basis)
N    -0.647206  0.060552  0.048821
C    -0.020718  -0.426109  1.285227
C    1.226961  -1.127941  0.735220
O    2.341649  -0.502674  0.742001
H    -1.287975  -0.625516  -0.350311
H    -1.152753  0.933641  0.191141
H    0.315634  0.451157  1.852670
C    -0.923667  -1.318998  2.156674
C    -0.367651  -1.643566  3.505844
N    -1.063575  -2.421599  4.425323
C    0.797196  -1.291110  4.140666
C    -0.371803  -2.540806  5.564826
N    0.762953  -1.857663  5.401328
H    -1.134783  -2.254698  1.613254
H    -1.887604  -0.801531  2.287457
H    1.633760  -0.689910  3.808461
H    -0.676239  -3.085722  6.450815
H    1.485542  -1.767405  6.111855
O    1.080635  -2.215288  0.077184
H    -1.977138  -2.842062  4.270001
Ba    2.755781  -1.351752  -1.542456
