21
Energy: -240071.869626 eV PBE+vdW (tier 2 basis)
N    0.037758  -0.048824  -0.032069
C    -0.051725  0.290676  1.363973
C    1.213098  -0.036491  2.236385
O    1.191194  -0.794745  3.228946
H    0.554148  0.639702  -0.576651
H    0.426739  -0.972598  -0.218398
H    -0.221681  1.375206  1.446252
C    -1.137271  -0.479150  2.109566
C    -2.601935  -0.638454  1.930439
N    -3.125437  -1.429665  2.961617
C    -3.595642  -0.273033  1.069225
C    -4.431345  -1.525381  2.709969
N    -4.742426  -0.843809  1.586812
H    -1.036428  -0.065476  3.132960
H    -0.743990  -1.519518  2.090037
H    -3.592837  0.313891  0.159636
H    -5.165306  -2.061984  3.301306
H    -5.673579  -0.763690  1.185862
O    2.310070  0.528675  1.789426
H    3.086360  0.278155  2.335283
Ba    -0.872512  -2.109440  4.532949
