21
Energy: -240073.433767 eV PBE+vdW (tier 2 basis)
N    0.022355  0.129688  0.036971
C    0.414757  -0.203706  1.445817
C    1.473866  -1.271736  1.138191
O    2.598133  -0.858643  0.714981
H    0.237820  1.105756  -0.169944
H    -0.983988  0.016028  -0.097327
H    0.894370  0.660245  1.921714
C    -0.790882  -0.684275  2.270674
C    -0.448242  -1.271825  3.600224
N    0.167684  -2.509639  3.740339
C    -0.670095  -0.822848  4.876959
C    0.320104  -2.810956  5.033548
N    -0.187721  -1.791101  5.733972
H    -1.348786  -1.436778  1.690970
H    -1.469565  0.163002  2.435333
H    -1.136680  0.085283  5.237330
H    0.767995  -3.709700  5.440654
H    -0.216514  -1.748694  6.750506
O    1.088763  -2.478660  0.953399
H    0.477651  -3.074058  2.945124
Ba    1.997976  -1.930380  -1.418436
