25
Energy: -18628.6940978 eV PBE+vdW (tier 2 basis)
C    -0.781538  -1.218893  -0.094607
C    -0.200444  -0.499397  1.108904
O    0.975315  -0.619907  1.437402
H    -0.021924  -1.912977  -0.463322
H    -1.015232  -0.504055  -0.898070
H    -1.700283  -1.767704  0.148095
N    -1.047506  0.300556  1.847602
C    -2.394001  0.714008  1.517521
C    -2.440064  2.251025  1.398442
O    -1.738575  2.956019  2.119357
H    -0.571870  0.882483  2.536527
H    -2.685805  0.234891  0.577116
C    -3.400638  0.289366  2.608710
C    -3.623914  -1.206839  2.616379
O    -3.799917  -1.684983  3.874023
O    -3.672835  -1.910932  1.628096
H    -4.382722  0.757311  2.428128
H    -3.061686  0.634458  3.592908
N    -3.325232  2.776678  0.503794
C    -4.135088  2.062833  -0.472810
H    -3.322862  3.791740  0.476664
H    -4.776324  2.788519  -0.983543
H    -4.791637  1.318245  -0.001788
H    -3.524205  1.557636  -1.236120
H    -3.964699  -2.644448  3.782041
