25
Energy: -18629.0221355 eV PBE+vdW (tier 2 basis)
C    -1.868057  -0.953031  -0.539522
C    -1.118992  -1.131860  0.763095
O    -0.308468  -2.052619  0.930245
H    -1.137852  -0.836207  -1.350004
H    -2.544864  -0.090368  -0.541572
H    -2.442730  -1.864218  -0.747079
N    -1.386633  -0.213980  1.732636
C    -0.736067  -0.254124  3.039865
C    -1.450158  -1.237081  4.006623
O    -2.099862  -0.836374  4.971480
H    -2.169261  0.425110  1.628966
H    0.276953  -0.641423  2.854820
C    -0.609946  1.133686  3.671462
C    -1.882669  1.832681  4.105927
O    -2.901262  1.682396  3.192528
O    -1.996902  2.533968  5.082053
H    -0.102626  1.800651  2.956104
H    0.022401  1.072652  4.563374
N    -1.272916  -2.538710  3.669000
C    -1.915780  -3.626370  4.380116
H    -0.769394  -2.721775  2.796897
H    -2.361301  -3.220126  5.294133
H    -1.183072  -4.398724  4.648501
H    -2.709651  -4.089856  3.775788
H    -3.661892  2.167703  3.565566
