25
Energy: -18628.7291546 eV PBE+vdW (tier 2 basis)
C    -0.236813  -1.017148  0.464767
C    -0.759946  -0.288701  1.687082
O    -1.549498  0.647765  1.616408
H    -1.077287  -1.235502  -0.203598
H    0.295443  -1.947943  0.696218
H    0.445604  -0.347398  -0.075194
N    -0.303117  -0.755509  2.894891
C    -0.564145  -0.064600  4.154505
C    -2.053405  0.319326  4.330113
O    -2.372955  1.449988  4.725479
H    0.414514  -1.470930  2.898703
H    -0.336334  -0.791297  4.952695
C    0.362328  1.163186  4.320648
C    0.600947  1.604952  5.768719
O    -0.450661  2.157815  6.395335
O    1.675944  1.466238  6.316093
H    -0.047424  1.992979  3.728351
H    1.345695  0.897428  3.919076
N    -3.005563  -0.628582  4.159705
C    -2.887586  -2.006926  3.718758
H    -3.942222  -0.257082  4.287569
H    -2.008281  -2.490603  4.158878
H    -2.826938  -2.094774  2.623851
H    -3.772940  -2.553316  4.063321
H    -1.243359  2.088636  5.785627
