25
Energy: -18628.8198726 eV PBE+vdW (tier 2 basis)
C    -0.779696  1.604921  0.920720
C    -0.045312  0.564231  1.747384
O    1.018010  0.802000  2.305060
H    -0.249136  2.553377  1.035557
H    -1.824180  1.734538  1.236540
H    -0.783073  1.334208  -0.145078
N    -0.641269  -0.678904  1.880279
C    -1.798876  -1.187521  1.166065
C    -3.028195  -1.431309  2.077515
O    -3.934966  -2.199473  1.722612
H    -0.040303  -1.362065  2.341576
H    -2.122949  -0.410025  0.459629
C    -1.477034  -2.443681  0.324963
C    -1.104217  -3.660324  1.171519
O    -2.140857  -4.309199  1.750504
O    0.039328  -4.025142  1.338589
H    -0.626032  -2.217438  -0.326008
H    -2.351077  -2.674052  -0.297537
N    -3.036783  -0.733968  3.229697
C    -4.104094  -0.823731  4.209256
H    -2.196070  -0.204809  3.442724
H    -4.547542  0.163553  4.393757
H    -3.729142  -1.229389  5.158258
H    -4.871986  -1.494471  3.811025
H    -2.968916  -3.785785  1.606970
