25
Energy: -18628.5901711 eV PBE+vdW (tier 2 basis)
C    0.227010  -0.488750  1.115567
C    -0.228855  0.579104  2.089058
O    0.321018  1.671959  2.184647
H    1.127939  -0.126971  0.614247
H    -0.543038  -0.698016  0.358901
H    0.452258  -1.436399  1.624161
N    -1.316384  0.279044  2.881876
C    -2.162205  -0.895892  2.814399
C    -3.129789  -0.992218  1.619437
O    -3.560074  -2.122733  1.321977
H    -1.573538  1.027974  3.518820
H    -1.517658  -1.779975  2.696261
C    -2.949569  -1.054796  4.139398
C    -3.348038  -2.474490  4.586340
O    -3.609943  -3.390197  3.644917
O    -3.426729  -2.730920  5.768577
H    -3.868802  -0.447635  4.116520
H    -2.330995  -0.663294  4.956064
N    -3.529404  0.087213  0.910270
C    -3.329180  1.518580  1.127982
H    -4.178757  -0.175188  0.173468
H    -4.021497  2.049221  0.466020
H    -2.309420  1.844247  0.891412
H    -3.565923  1.812102  2.157840
H    -3.565925  -3.000708  2.717626
