25
Energy: -18628.504921 eV PBE+vdW (tier 2 basis)
C    0.223971  0.362665  1.602231
C    -0.700740  -0.591778  2.325702
O    -0.274674  -1.443887  3.099802
H    0.181222  1.356115  2.071379
H    -0.027532  0.450315  0.539648
H    1.241356  -0.023421  1.708940
N    -2.072890  -0.473394  2.165180
C    -2.912422  0.286412  1.253313
C    -2.830817  -0.200138  -0.214322
O    -1.788360  -0.607641  -0.715368
H    -2.555454  -1.183816  2.707100
H    -3.934102  0.125978  1.622765
C    -2.684646  1.812904  1.302026
C    -2.994704  2.340833  2.686914
O    -1.976087  3.086084  3.189095
O    -4.027113  2.133710  3.289040
H    -3.380508  2.301161  0.603531
H    -1.671151  2.082436  0.993036
N    -3.987205  -0.109250  -0.940245
C    -5.328839  0.207351  -0.471597
H    -3.882736  -0.437374  -1.895576
H    -5.992674  0.258522  -1.340965
H    -5.374377  1.182573  0.032058
H    -5.728441  -0.557082  0.212248
H    -2.261688  3.377609  4.077801
