25
Energy: -18628.6547357 eV PBE+vdW (tier 2 basis)
C    0.019924  1.257003  -0.059153
C    0.151862  0.457024  1.221249
O    1.250503  0.192584  1.703361
H    0.107508  2.323462  0.194058
H    -0.917403  1.117216  -0.607373
H    0.867445  1.003988  -0.703832
N    -0.991982  0.045828  1.871116
C    -2.398832  0.192514  1.509135
C    -2.742247  -0.328573  0.094502
O    -3.348715  0.367494  -0.719503
H    -0.794213  -0.394078  2.765163
H    -2.938853  -0.455510  2.218141
C    -2.939571  1.608737  1.715309
C    -3.022560  1.952066  3.183215
O    -3.107471  3.294481  3.378836
O    -3.036489  1.152925  4.098804
H    -3.949424  1.685512  1.284342
H    -2.340689  2.361171  1.188870
N    -2.359306  -1.602175  -0.206029
C    -1.734419  -2.605008  0.643919
H    -2.604012  -1.870677  -1.153816
H    -2.176228  -2.608949  1.648976
H    -0.649701  -2.459793  0.741299
H    -1.917683  -3.591137  0.202783
H    -3.189104  3.423249  4.344216
