25
Energy: -18628.6186633 eV PBE+vdW (tier 2 basis)
C    -0.037225  -1.559442  0.279998
C    -0.075892  -0.723142  1.537451
O    0.890260  -0.021875  1.869381
H    0.768225  -2.298505  0.376491
H    0.214132  -0.911590  -0.568247
H    -0.977862  -2.081757  0.069575
N    -1.221311  -0.778937  2.265302
C    -1.366270  -0.148419  3.585184
C    -2.609193  -0.736988  4.280882
O    -2.496331  -1.338953  5.341225
H    -1.921832  -1.460159  1.994337
H    -0.531793  -0.483282  4.215535
C    -1.383766  1.410212  3.553846
C    -0.206115  2.092617  4.265343
O    1.022885  1.708727  3.891279
O    -0.384886  2.945113  5.109014
H    -2.283805  1.799090  4.042280
H    -1.403238  1.754801  2.509497
N    -3.827588  -0.617283  3.654796
C    -4.237279  0.289934  2.590402
H    -4.572855  -1.015885  4.220613
H    -5.080229  -0.154154  2.047087
H    -3.424822  0.445520  1.873588
H    -4.549042  1.273621  2.974440
H    0.980144  1.037048  3.147025
