25
Energy: -18628.8439784 eV PBE+vdW (tier 2 basis)
C    -1.855455  0.464878  -0.044431
C    -1.380106  0.397994  1.392049
O    -0.348656  0.949547  1.774245
H    -2.671447  -0.232602  -0.269239
H    -1.006995  0.264139  -0.708067
H    -2.201856  1.486939  -0.247389
N    -2.196112  -0.293760  2.245754
C    -1.853785  -0.490853  3.632823
C    -2.301792  -1.907159  4.027170
O    -3.204100  -2.472679  3.407732
H    -2.970449  -0.858195  1.904660
H    -0.765150  -0.363672  3.716683
C    -2.551016  0.539886  4.568869
C    -2.066708  1.946070  4.294728
O    -0.850666  2.165069  4.870146
O    -2.655695  2.779576  3.642888
H    -2.343612  0.288475  5.617587
H    -3.632771  0.503939  4.398822
N    -1.687596  -2.493307  5.091692
C    -0.633435  -1.967252  5.942484
H    -2.085886  -3.396369  5.332963
H    -1.029194  -1.458884  6.835717
H    -0.007698  -1.256276  5.392993
H    0.010913  -2.791282  6.271291
H    -0.556732  3.041776  4.555827
