25
Energy: -18628.8675697 eV PBE+vdW (tier 2 basis)
C    -2.896444  0.082818  -0.043673
C    -2.220358  0.381200  1.280347
O    -1.563717  1.406550  1.471149
H    -3.440207  -0.869356  -0.054938
H    -2.133407  0.069640  -0.831749
H    -3.592703  0.898071  -0.276263
N    -2.387664  -0.557774  2.252567
C    -1.788538  -0.427967  3.560401
C    -2.001687  -1.778157  4.265879
O    -2.818786  -2.594772  3.832011
H    -2.946848  -1.400494  2.126117
H    -0.711233  -0.228311  3.447019
C    -2.390389  0.752062  4.377035
C    -1.474513  1.956176  4.389599
O    -2.159109  3.119982  4.275601
O    -0.270861  1.904676  4.548183
H    -2.536120  0.460609  5.428759
H    -3.375405  1.016048  3.978919
N    -1.270236  -2.030208  5.383151
C    -0.244829  -1.219412  6.022117
H    -1.501435  -2.922953  5.809951
H    0.054572  -0.384039  5.381655
H    0.644621  -1.831507  6.221793
H    -0.600233  -0.800279  6.975782
H    -1.488471  3.830399  4.295587
