25
Energy: -18628.6297557 eV PBE+vdW (tier 2 basis)
C    -1.248881  -0.434236  0.404773
C    -0.457523  -0.957552  1.590985
O    0.284966  -1.930318  1.504949
H    -0.943245  0.585394  0.130632
H    -1.056100  -1.098321  -0.441468
H    -2.328880  -0.413781  0.605823
N    -0.593778  -0.285313  2.784911
C    -1.477119  0.832780  3.094449
C    -0.709560  1.802606  4.021847
O    -0.897486  1.805502  5.236281
H    -0.087442  -0.712722  3.557402
H    -1.711509  1.346797  2.155267
C    -2.780961  0.372107  3.758205
C    -3.823460  1.443068  3.994859
O    -3.635148  2.539937  3.196852
O    -4.750073  1.352372  4.766502
H    -2.575303  -0.091848  4.730065
H    -3.249137  -0.397116  3.124648
N    0.205435  2.619432  3.428238
C    0.558639  2.694804  2.020136
H    0.721970  3.194304  4.086056
H    1.279871  3.507849  1.888856
H    -0.314876  2.926516  1.393681
H    1.021505  1.765763  1.657182
H    -4.357203  3.157120  3.425396
