25
Energy: -18629.1127445 eV PBE+vdW (tier 2 basis)
C    -5.681801  -0.912213  1.122942
C    -4.323034  -0.311202  1.427316
O    -3.967156  0.779221  0.975429
H    -5.855687  -1.876623  1.615071
H    -5.772133  -1.041833  0.037152
H    -6.459933  -0.204009  1.433174
N    -3.522933  -1.053477  2.244056
C    -2.163795  -0.671352  2.554253
C    -1.470905  -1.951981  3.080862
O    -2.135034  -2.950163  3.376313
H    -3.771711  -1.989985  2.562659
H    -1.662933  -0.331108  1.634124
C    -2.144752  0.497971  3.564826
C    -0.857812  1.280621  3.614667
O    -0.985296  2.392312  4.378029
O    0.188695  0.999234  3.053341
H    -2.385003  0.149573  4.581002
H    -2.938024  1.203957  3.280912
N    -0.126064  -1.871166  3.178503
C    0.691684  -2.950814  3.697022
H    0.301377  -0.971331  2.952286
H    1.172429  -2.666932  4.644215
H    1.472364  -3.226954  2.975608
H    0.044168  -3.815670  3.872843
H    -0.117711  2.841924  4.356395
