25
Energy: -18628.4918424 eV PBE+vdW (tier 2 basis)
C    -1.055465  0.993361  2.747875
C    -0.415560  -0.382118  2.700414
O    0.466548  -0.721795  3.484739
H    -0.974410  1.521172  1.787231
H    -0.543108  1.574988  3.518164
H    -2.123857  0.928222  3.000402
N    -0.868218  -1.254159  1.737660
C    -2.017777  -1.076942  0.877644
C    -3.441436  -1.395739  1.418262
O    -4.389023  -1.029971  0.717759
H    -0.483634  -2.194131  1.803135
H    -2.099831  -0.007312  0.641001
C    -1.833542  -1.785519  -0.475131
C    -1.671100  -3.293869  -0.374546
O    -1.772230  -3.974724  -1.548168
O    -1.439090  -3.900542  0.647745
H    -0.940776  -1.383129  -0.980155
H    -2.706049  -1.546352  -1.100393
N    -3.645258  -1.991992  2.622588
C    -2.742418  -2.707093  3.524345
H    -4.639366  -2.083520  2.811713
H    -3.364501  -3.251116  4.243304
H    -2.087611  -2.031463  4.088403
H    -2.131091  -3.438705  2.984281
H    -1.999457  -3.362175  -2.269566
