25
Energy: -18628.6805333 eV PBE+vdW (tier 2 basis)
C    0.106660  -0.227587  2.537910
C    -0.855371  0.300637  3.587169
O    -0.499475  0.516726  4.742340
H    1.124002  -0.084904  2.911690
H    0.000609  0.261084  1.560892
H    -0.054422  -1.305223  2.387760
N    -2.158353  0.507131  3.206589
C    -2.769377  0.355665  1.907578
C    -4.056557  1.209187  1.930962
O    -4.559370  1.560597  2.997128
H    -2.786157  0.882833  3.919836
H    -2.099555  0.733525  1.121063
C    -3.117873  -1.123462  1.558444
C    -2.210062  -1.725147  0.511239
O    -2.088645  -3.069469  0.665229
O    -1.663951  -1.113690  -0.385843
H    -4.139753  -1.204321  1.153674
H    -3.102557  -1.730471  2.470572
N    -4.622263  1.533013  0.735513
C    -4.196212  1.199162  -0.614014
H    -5.495435  2.041718  0.842429
H    -4.338778  2.067643  -1.269136
H    -4.767503  0.353915  -1.028914
H    -3.136370  0.928670  -0.637917
H    -1.525353  -3.380075  -0.071017
