25
Energy: -18628.6143871 eV PBE+vdW (tier 2 basis)
C    -0.008472  -0.040669  0.060333
C    -0.098681  0.443029  1.494028
O    0.685779  1.275902  1.953435
H    1.026635  -0.333490  -0.149595
H    -0.256335  0.796847  -0.604708
H    -0.676152  -0.880390  -0.166487
N    -1.104218  -0.101713  2.235880
C    -1.402983  0.286711  3.612275
C    -1.909658  1.756179  3.657341
O    -3.005477  1.978330  3.142767
H    -1.740329  -0.752812  1.794655
H    -2.315188  -0.268970  3.864895
C    -0.320786  -0.185807  4.587597
C    -0.340511  -1.692310  4.740282
O    0.755360  -2.128336  5.420748
O    -1.204391  -2.444659  4.339391
H    -0.487345  0.238692  5.589679
H    0.684190  0.123015  4.278827
N    -1.229696  2.748791  4.301107
C    0.175802  2.854778  4.679447
H    -1.753579  3.618460  4.259721
H    0.436901  3.918578  4.704140
H    0.813238  2.366461  3.933978
H    0.373913  2.440726  5.679039
H    0.656736  -3.097481  5.498320
