25
Energy: -18628.926783 eV PBE+vdW (tier 2 basis)
C    -2.222235  -1.169849  -0.375766
C    -1.501554  -0.583674  0.820540
O    -0.649121  0.296953  0.714423
H    -1.492164  -1.365562  -1.168761
H    -2.931697  -0.420994  -0.752580
H    -2.773789  -2.090142  -0.147838
N    -1.885844  -1.083221  2.035582
C    -1.295169  -0.635046  3.273290
C    -1.171724  -1.851475  4.205621
O    -1.993733  -2.765862  4.168574
H    -2.529581  -1.865932  2.110628
H    -0.309719  -0.211396  3.028656
C    -2.149054  0.455590  3.984662
C    -2.262951  1.702986  3.137640
O    -1.156052  2.487193  3.264318
O    -3.197530  1.980900  2.418483
H    -1.681982  0.707425  4.946340
H    -3.156581  0.063528  4.163786
N    -0.126524  -1.801538  5.073826
C    0.117462  -2.822151  6.077083
H    0.526039  -1.030928  4.989584
H    0.116567  -2.391237  7.087573
H    1.078151  -3.326304  5.904557
H    -0.688308  -3.559335  6.001011
H    -1.256908  3.205071  2.609768
