25
Energy: -18628.7035623 eV PBE+vdW (tier 2 basis)
C    -1.421203  1.581912  -0.183578
C    -0.393690  0.979089  0.757525
O    0.748638  1.409736  0.844256
H    -0.940711  2.410167  -0.710166
H    -2.299156  1.968213  0.353352
H    -1.772367  0.848259  -0.922142
N    -0.796718  -0.084789  1.542155
C    -2.074634  -0.785072  1.511711
C    -2.469927  -1.118714  2.962203
O    -2.344036  -2.261508  3.432912
H    -0.033182  -0.517014  2.059436
H    -2.820466  -0.076673  1.126390
C    -2.103789  -2.016821  0.578714
C    -0.882329  -2.944551  0.642321
O    -0.607456  -3.480806  1.844969
O    -0.208761  -3.182557  -0.336049
H    -2.161189  -1.667141  -0.457888
H    -3.012538  -2.602911  0.785531
N    -2.948952  -0.110080  3.726152
C    -3.113831  1.290206  3.364812
H    -3.134164  -0.381921  4.687228
H    -3.571266  1.810573  4.211814
H    -3.784452  1.409425  2.502376
H    -2.152106  1.770566  3.139382
H    -1.285814  -3.158762  2.510325
