25
Energy: -18629.0504961 eV PBE+vdW (tier 2 basis)
C    -0.069958  -0.283101  -0.258917
C    -0.006256  -0.290027  1.252333
O    0.906931  -0.906441  1.837920
H    -0.137501  -1.321487  -0.607135
H    0.868876  0.130264  -0.647805
H    -0.913123  0.287698  -0.663974
N    -0.975417  0.414625  1.874677
C    -1.313561  0.532813  3.297788
C    -2.009404  1.917949  3.412696
O    -2.838004  2.217295  2.546486
H    -1.662758  0.909099  1.305342
H    -2.130361  -0.184975  3.499652
C    -0.211674  0.189006  4.312659
C    1.011355  1.106203  4.326230
O    2.009279  0.782145  3.509599
O    1.066558  2.084316  5.059229
H    0.097602  -0.849793  4.152024
H    -0.667492  0.250464  5.309033
N    -1.706254  2.687401  4.477056
C    -2.325054  3.992837  4.648557
H    -0.827335  2.506297  4.976282
H    -2.169314  4.324500  5.680323
H    -3.398912  3.920312  4.445210
H    -1.898079  4.740140  3.963079
H    1.704853  0.024458  2.913657
