23
Energy: -15097.9282796 eV PBE+vdW (tier 2 basis)
N    1.970584  -0.810052  0.188699
C    0.719938  -0.402495  0.812453
C    0.945193  0.276335  2.157966
O    0.119415  0.973233  2.712188
H    1.784629  -1.263219  -0.706026
H    2.468115  -1.482434  0.773518
H    0.260580  0.371597  0.179491
C    -0.371762  -1.516168  0.999643
C    0.052180  -2.646211  1.898390
C    0.748838  -3.751279  1.387754
C    -0.199777  -2.599100  3.277997
C    1.191217  -4.773640  2.228826
C    0.238854  -3.619744  4.120866
C    0.939538  -4.709428  3.599697
H    -0.608026  -1.896743  -0.005140
H    -1.280011  -1.034628  1.388062
H    0.934665  -3.817490  0.314393
H    -0.749105  -1.752200  3.692361
H    1.727601  -5.625664  1.810667
H    0.027755  -3.566815  5.189113
H    1.279631  -5.508724  4.257908
O    2.147699  -0.022426  2.711659
H    2.156250  0.420296  3.582516
