23
Energy: -15097.8720322 eV PBE+vdW (tier 2 basis)
N    0.121229  -0.342995  -0.099050
C    -0.023276  -0.134150  1.334526
C    1.319737  0.136408  2.051906
O    2.397262  -0.109914  1.561675
H    0.469011  0.511846  -0.535780
H    0.855701  -1.037307  -0.258823
H    -0.664476  0.751084  1.480328
C    -0.748311  -1.357243  1.959332
C    -1.140794  -1.190152  3.406768
C    -2.130099  -0.263330  3.777733
C    -0.511515  -1.929164  4.417971
C    -2.473385  -0.078783  5.117817
C    -0.855850  -1.750250  5.758252
C    -1.835611  -0.822141  6.113022
H    -0.102379  -2.240604  1.846322
H    -1.636390  -1.528664  1.334956
H    -2.646882  0.311048  3.006191
H    0.264997  -2.646377  4.148735
H    -3.245989  0.642493  5.384205
H    -0.352189  -2.334489  6.528159
H    -2.103021  -0.679300  7.159632
O    1.244692  0.691264  3.293193
H    0.313566  0.712570  3.589923
