23
Energy: -15098.0060784 eV PBE+vdW (tier 2 basis)
N    1.477220  -1.856111  1.815020
C    0.942795  -0.656008  1.194658
C    0.001723  0.146298  2.104270
O    -0.414902  -0.211863  3.183977
H    1.956831  -1.616284  2.683096
H    0.707397  -2.471753  2.086421
H    1.783973  0.016589  0.960525
C    0.258738  -0.992394  -0.159825
C    -0.935153  -1.907069  -0.031950
C    -0.781857  -3.300010  -0.092634
C    -2.221574  -1.387449  0.173883
C    -1.879129  -4.148761  0.059753
C    -3.320189  -2.232947  0.325705
C    -3.152112  -3.617691  0.271987
H    1.028039  -1.465954  -0.783934
H    -0.034594  -0.052252  -0.644468
H    0.210699  -3.719162  -0.263952
H    -2.363585  -0.306060  0.208181
H    -1.739131  -5.228667  0.007598
H    -4.312106  -1.808760  0.482387
H    -4.010414  -4.279209  0.388289
O    -0.314956  1.358969  1.559379
H    -0.902715  1.796547  2.205634
