23
Energy: -15097.9886056 eV PBE+vdW (tier 2 basis)
N    -0.266942  0.643999  0.437699
C    0.237519  0.143942  1.705131
C    1.635116  -0.407310  1.484003
O    2.027262  -0.918200  0.456021
H    -1.277560  0.775758  0.482605
H    -0.061348  -0.027647  -0.304082
H    0.308308  0.977149  2.420976
C    -0.609773  -0.989347  2.384642
C    -2.020403  -0.543704  2.659846
C    -3.057285  -0.841730  1.764465
C    -2.320300  0.225844  3.793925
C    -4.356747  -0.383722  1.993015
C    -3.616324  0.683231  4.026372
C    -4.639692  0.381353  3.124381
H    -0.114106  -1.282641  3.321769
H    -0.608993  -1.864233  1.717990
H    -2.843807  -1.450339  0.884170
H    -1.526951  0.464769  4.504751
H    -5.149728  -0.629683  1.286586
H    -3.830466  1.275034  4.916471
H    -5.653463  0.737269  3.306673
O    2.400750  -0.316911  2.605810
H    3.251042  -0.745578  2.386235
