23
Energy: -15097.9920503 eV PBE+vdW (tier 2 basis)
N    0.454947  1.256859  0.639085
C    0.582084  0.385010  1.806855
C    0.996975  -1.040452  1.431337
O    0.444789  -1.722628  0.590972
H    -0.149171  0.809139  -0.054149
H    1.363095  1.385402  0.191078
H    1.351018  0.803140  2.470583
C    -0.765518  0.341542  2.564379
C    -0.729466  -0.487033  3.824180
C    -1.155847  -1.821892  3.820494
C    -0.232426  0.051674  5.019063
C    -1.084443  -2.598836  4.977743
C    -0.160379  -0.720863  6.177713
C    -0.585320  -2.050944  6.160055
H    -1.529016  -0.051436  1.876328
H    -1.030458  1.384373  2.786027
H    -1.546037  -2.255271  2.898190
H    0.097716  1.092089  5.041379
H    -1.423879  -3.634629  4.955764
H    0.224729  -0.282494  7.098600
H    -0.532303  -2.655414  7.065445
O    2.074266  -1.469410  2.140773
H    2.242643  -2.388926  1.853104
