23
Energy: -15097.9416411 eV PBE+vdW (tier 2 basis)
N    -0.234593  0.878587  0.646533
C    0.282316  0.479939  1.949689
C    1.772066  0.181896  1.891546
O    2.558859  0.399267  2.787870
H    -0.092814  0.136736  -0.040130
H    -1.239935  1.044340  0.712204
H    0.182140  1.334775  2.633109
C    -0.418067  -0.748899  2.627620
C    -1.880542  -0.491139  2.868987
C    -2.850192  -0.917521  1.950612
C    -2.301670  0.234163  3.993646
C    -4.202245  -0.629319  2.148566
C    -3.650530  0.522746  4.195464
C    -4.606214  0.092884  3.271555
H    0.095165  -0.957936  3.577806
H    -0.285884  -1.626809  1.977935
H    -2.540813  -1.491900  1.075825
H    -1.561202  0.571595  4.721362
H    -4.941215  -0.973821  1.424918
H    -3.958285  1.081984  5.079143
H    -5.661058  0.316135  3.430034
O    2.130776  -0.434579  0.729261
H    3.087936  -0.613124  0.806446
