23
Energy: -15097.8419199 eV PBE+vdW (tier 2 basis)
N    -0.203212  -0.038562  -0.087496
C    -0.113467  -0.036616  1.362216
C    1.331524  0.302988  1.756105
O    2.275012  0.149059  1.014803
H    -0.865923  -0.736033  -0.421461
H    0.718827  -0.252586  -0.474738
H    -0.763165  0.759416  1.771819
C    -0.555058  -1.381898  2.025012
C    -0.624178  -1.346252  3.530579
C    -1.611774  -0.590826  4.185328
C    0.321190  -2.025089  4.312235
C    -1.648669  -0.514459  5.578475
C    0.282641  -1.955521  5.704884
C    -0.700527  -1.197351  6.342652
H    0.129413  -2.173974  1.689448
H    -1.549984  -1.614935  1.613918
H    -2.368021  -0.066540  3.597643
H    1.101253  -2.606961  3.819466
H    -2.424619  0.074175  6.067886
H    1.026743  -2.491736  6.293549
H    -0.729528  -1.140378  7.430407
O    1.516668  0.788500  3.009247
H    0.672828  0.764297  3.500753
