30
Energy: -106347.667059 eV PBE+vdW (tier 2 basis)
C    0.451124  -0.775713  1.179205
C    -0.302917  -0.906487  2.465149
O    -0.274185  -2.009366  3.117948
H    0.419841  0.237420  0.766231
H    0.007567  -1.465337  0.446388
H    1.496220  -1.082336  1.315462
N    -0.993199  0.135159  2.896781
C    -1.959335  0.217832  3.989316
C    -2.599003  1.626958  3.767143
O    -1.957559  2.455198  3.111489
H    -0.961477  1.043462  2.398751
H    -2.713466  -0.573636  3.861812
C    -1.370532  0.103872  5.415864
C    -0.172621  1.006017  5.731166
C    1.186956  0.454164  5.362936
O    1.421816  -0.793254  5.354463
N    2.158519  1.321327  5.106834
H    -1.121020  -0.946367  5.631183
H    -2.179120  0.346767  6.117764
H    -0.128333  1.163851  6.822148
H    -0.302012  2.004628  5.290006
H    1.995283  2.323521  5.124874
H    3.112866  1.001383  4.963208
N    -3.790136  1.843228  4.342020
C    -4.509214  3.114794  4.248385
H    -4.267523  1.065707  4.787217
H    -3.858679  3.844254  3.759155
H    -4.774060  3.471082  5.250523
H    -5.423340  2.991647  3.655001
Sr    0.905543  -2.946773  4.780577
