30
Energy: -106347.522524 eV PBE+vdW (tier 2 basis)
C    -0.815663  1.230828  0.150319
C    -0.628624  0.528680  1.453774
O    0.540130  0.216117  1.862522
H    -1.865791  1.437992  -0.079901
H    -0.386938  0.615766  -0.653012
H    -0.259060  2.177626  0.162047
N    -1.695263  0.223523  2.190004
C    -1.645879  -0.483478  3.477489
C    -3.024707  -1.160296  3.749827
O    -3.697886  -0.786575  4.703577
H    -2.606755  0.520069  1.846866
H    -0.876963  -1.266206  3.376037
C    -1.292001  0.485441  4.620780
C    -0.969784  -0.181570  5.959242
C    0.303477  -0.989452  6.011306
O    1.244154  -0.819944  5.168611
N    0.440302  -1.875240  6.987615
H    -2.154884  1.143294  4.784131
H    -0.460847  1.134304  4.304990
H    -1.821079  -0.794580  6.288194
H    -0.865076  0.604286  6.726809
H    -0.294171  -2.025168  7.673358
H    1.307948  -2.392459  7.103540
N    -3.413934  -2.147221  2.904844
C    -2.720377  -2.714369  1.755385
H    -4.337304  -2.517137  3.123300
H    -3.063924  -3.743933  1.611830
H    -1.636779  -2.753356  1.923687
H    -2.918246  -2.157814  0.827718
Sr    2.274047  -0.143628  3.260225
