30
Energy: -106347.791802 eV PBE+vdW (tier 2 basis)
C    -0.094819  -0.832604  0.442202
C    0.014010  -0.314729  1.837652
O    1.091142  -0.469304  2.505109
H    -1.089930  -0.689043  0.009599
H    0.165135  -1.898626  0.419422
H    0.644030  -0.310687  -0.182939
N    -1.031215  0.327933  2.365950
C    -1.040833  0.886124  3.720905
C    -1.220660  -0.277200  4.723129
O    -0.177777  -0.740097  5.302451
H    -1.958490  0.238460  1.932143
H    -0.021943  1.250843  3.902713
C    -2.001036  2.104726  3.914698
C    -2.984600  2.489590  2.796491
C    -4.077450  1.461663  2.556981
O    -3.825666  0.240216  2.680307
N    -5.282588  1.901322  2.183488
H    -1.364457  2.980905  4.086351
H    -2.558905  1.959081  4.849089
H    -2.456141  2.645254  1.841307
H    -3.415603  3.467162  3.051242
H    -5.495775  2.886771  2.079047
H    -6.014550  1.228637  1.971758
N    -2.426069  -0.772517  4.890942
C    -2.769464  -1.889232  5.766276
H    -3.150478  -0.398113  4.249336
H    -2.944122  -2.796411  5.172789
H    -3.688379  -1.645400  6.310422
H    -1.959329  -2.063715  6.478513
Sr    1.944962  -1.087007  4.524627
