30
Energy: -106348.120391 eV PBE+vdW (tier 2 basis)
C    -0.759847  0.849172  0.499774
C    -0.738288  0.295746  1.884808
O    -0.248493  0.935774  2.852472
H    0.153756  1.435930  0.346804
H    -1.604991  1.546520  0.391319
H    -0.836450  0.075242  -0.270610
N    -1.269622  -0.938567  2.139131
C    -2.543587  -1.410996  1.619824
C    -3.643404  -0.338759  1.879199
O    -3.478967  0.571395  2.735595
H    -1.072352  -1.251988  3.088881
H    -2.470848  -1.541549  0.529300
C    -2.897732  -2.803102  2.222199
C    -2.428083  -3.154872  3.657597
C    -2.921512  -2.296339  4.807708
O    -2.472873  -1.129703  4.994816
N    -3.823360  -2.820706  5.632736
H    -2.446441  -3.564875  1.573734
H    -3.984147  -2.945234  2.148922
H    -1.328151  -3.157167  3.713827
H    -2.719824  -4.199746  3.826556
H    -4.157621  -3.773209  5.528108
H    -4.137850  -2.300508  6.448056
N    -4.746127  -0.418485  1.145470
C    -5.880426  0.502654  1.267719
H    -4.804154  -1.145365  0.437383
H    -6.617499  0.247141  0.502356
H    -5.547465  1.536188  1.117871
H    -6.343007  0.414192  2.257856
Sr    -1.981637  1.124217  4.504594
