30
Energy: -106347.554933 eV PBE+vdW (tier 2 basis)
C    0.013928  1.363085  0.165833
C    -0.074128  0.326950  1.243418
O    0.641343  -0.734793  1.168571
H    -0.611742  2.238630  0.365063
H    -0.305215  0.910817  -0.783718
H    1.054496  1.689539  0.037892
N    -0.901873  0.544735  2.249449
C    -1.377696  -0.370926  3.283132
C    -2.887308  0.045626  3.410901
O    -3.197335  1.181558  3.044915
H    -1.561816  1.348820  2.210705
H    -1.275967  -1.408646  2.933816
C    -0.704851  -0.180936  4.662720
C    0.681614  -0.830214  4.877800
C    1.895028  -0.110254  4.334433
O    2.613858  -0.631075  3.427787
N    2.221888  1.069213  4.850101
H    -1.373464  -0.631228  5.408756
H    -0.685656  0.893189  4.897966
H    0.692591  -1.849078  4.469798
H    0.834320  -0.935021  5.963558
H    1.701274  1.481942  5.617688
H    3.062378  1.550662  4.541086
N    -3.720740  -0.856964  3.947856
C    -5.142141  -0.596656  4.182454
H    -3.368179  -1.783327  4.165025
H    -5.383418  -0.746214  5.241379
H    -5.757154  -1.268349  3.571716
H    -5.352339  0.439177  3.903909
Sr    2.605013  -1.765176  1.445476
