30
Energy: -106347.53562 eV PBE+vdW (tier 2 basis)
C    0.362628  0.081563  0.314432
C    0.190383  -0.142977  1.779293
O    1.223696  -0.231549  2.535239
H    0.924487  -0.750981  -0.130096
H    0.979396  0.981052  0.179105
H    -0.579586  0.213175  -0.224540
N    -1.003824  -0.250436  2.342791
C    -2.325161  -0.504351  1.785163
C    -3.264008  -0.254088  3.003068
O    -2.781173  -0.379351  4.139081
H    -1.085780  -0.277689  3.376351
H    -2.551856  0.191084  0.965320
C    -2.458742  -1.962702  1.278390
C    -2.210104  -3.065979  2.354356
C    -0.830966  -3.682954  2.324069
O    0.154487  -3.182627  2.951320
N    -0.667481  -4.788328  1.604296
H    -1.792504  -2.104253  0.415169
H    -3.478800  -2.088403  0.892850
H    -2.947343  -3.865227  2.208469
H    -2.375988  -2.663909  3.363123
H    0.236153  -5.251480  1.556559
H    -1.445120  -5.230612  1.124549
N    -4.542875  0.025231  2.729809
C    -5.563793  0.243074  3.755173
H    -4.811753  0.166545  1.760683
H    -5.907273  1.284362  3.732048
H    -5.124605  0.029718  4.732894
H    -6.417494  -0.422033  3.581215
Sr    1.776546  -1.904122  3.950070
