30
Energy: -106347.309529 eV PBE+vdW (tier 2 basis)
C    -0.095607  -0.562981  0.018312
C    -0.221344  0.160600  1.326476
O    0.618704  1.072475  1.627403
H    -0.119329  0.167264  -0.801950
H    -0.882638  -1.305575  -0.150424
H    0.875998  -1.073950  -0.025052
N    -1.222136  -0.193227  2.133989
C    -1.655862  0.283353  3.467431
C    -2.861217  1.274418  3.459418
O    -3.196407  1.736092  4.543802
H    -1.776936  -0.971247  1.783404
H    -2.076907  -0.620791  3.931682
C    -0.534094  0.771670  4.414255
C    -0.356353  2.308696  4.495113
C    0.998464  2.679000  5.030712
O    2.015805  2.674146  4.260668
N    1.132930  2.988355  6.309847
H    0.403517  0.273258  4.136099
H    -0.785443  0.409658  5.418061
H    -1.163522  2.729076  5.105437
H    -0.444416  2.759855  3.496256
H    0.332936  3.021721  6.934620
H    2.046746  3.221896  6.692252
N    -3.465175  1.534299  2.279793
C    -4.675678  2.349846  2.181261
H    -3.136139  1.071699  1.440959
H    -4.561628  3.099866  1.390518
H    -4.830286  2.849843  3.141317
H    -5.549005  1.722618  1.962110
Sr    2.490852  2.271679  2.073550
