30
Energy: -106347.645798 eV PBE+vdW (tier 2 basis)
C    2.521582  -0.119029  2.804607
C    1.365054  0.369503  3.625687
O    1.381561  0.384787  4.863532
H    3.351175  0.592606  2.921404
H    2.295524  -0.223176  1.737450
H    2.866014  -1.079829  3.203888
N    0.254609  0.811195  2.941810
C    -0.797314  1.603275  3.582543
C    -1.758531  0.755408  4.458947
O    -3.033991  0.851120  4.335079
H    0.296049  0.800536  1.928960
H    -0.297537  2.277235  4.302295
C    -1.528651  2.489251  2.568165
C    -2.164083  1.754974  1.353331
C    -3.492540  2.357729  0.959020
O    -4.485237  2.275585  1.746973
N    -3.612466  2.970786  -0.208655
H    -0.819670  3.242844  2.201863
H    -2.297958  3.050506  3.114304
H    -2.373839  0.703517  1.600612
H    -1.479291  1.747948  0.496108
H    -2.837589  3.045590  -0.859859
H    -4.504542  3.375499  -0.485750
N    -1.196704  -0.004607  5.364696
C    -1.913276  -0.849101  6.313525
H    -0.141936  0.064084  5.389958
H    -2.599733  -1.525887  5.790259
H    -2.480562  -0.238098  7.028236
H    -1.180399  -1.443743  6.864905
Sr    -5.115514  1.447130  3.794873
