30
Energy: -106348.797423 eV PBE+vdW (tier 2 basis)
C    0.899911  2.302726  1.409861
C    0.440496  0.999114  1.983946
O    1.204435  -0.001466  1.998974
H    1.162966  2.147381  0.354387
H    1.817152  2.618438  1.923991
H    0.155876  3.103015  1.477473
N    -0.818507  0.945183  2.472331
C    -1.535991  -0.231862  3.001532
C    -0.940381  -0.668065  4.359479
O    0.141285  -1.306788  4.433965
H    -1.353167  1.806744  2.416462
H    -2.553839  0.130244  3.199632
C    -1.630514  -1.352359  1.935775
C    -2.045320  -2.752562  2.435602
C    -1.013854  -3.820621  2.108106
O    0.221173  -3.578873  2.191928
N    -1.450100  -5.025696  1.757789
H    -0.673328  -1.423324  1.409968
H    -2.348581  -1.005530  1.182801
H    -3.026081  -3.036122  2.035848
H    -2.154573  -2.777720  3.532568
H    -0.785630  -5.772554  1.570348
H    -2.437958  -5.236393  1.664067
N    -1.638548  -0.333793  5.442257
C    -1.232317  -0.619550  6.818350
H    -2.498641  0.191743  5.313388
H    -0.505044  -1.435159  6.816328
H    -2.113453  -0.911452  7.399011
H    -0.779957  0.270055  7.275484
Sr    1.821489  -2.042757  2.960349
