30
Energy: -106348.367279 eV PBE+vdW (tier 2 basis)
C    -0.180744  3.302700  1.734424
C    -0.257027  2.016109  2.486338
O    0.683559  1.633399  3.233858
H    0.687535  3.273825  1.062098
H    -0.004013  4.120509  2.445832
H    -1.081018  3.519770  1.150301
N    -1.374327  1.254587  2.353012
C    -1.479428  0.018340  3.113867
C    -0.756491  -1.158474  2.419014
O    0.359601  -1.510016  2.902677
H    -2.123222  1.582123  1.749970
H    -0.834837  0.226634  3.965782
C    -2.811356  -0.298069  3.805957
C    -2.582603  -1.279327  4.988649
C    -1.659340  -0.775707  6.091772
O    -0.434021  -0.529343  5.887381
N    -2.182278  -0.612993  7.303425
H    -3.559051  -0.741200  3.136941
H    -3.234342  0.645691  4.179450
H    -2.141994  -2.218483  4.618573
H    -3.559037  -1.544195  5.411667
H    -3.154461  -0.821615  7.504829
H    -1.593742  -0.310085  8.075898
N    -1.253627  -1.774626  1.353153
C    -2.483133  -1.513417  0.608396
H    -0.660266  -2.525412  0.996548
H    -3.188062  -2.345685  0.729394
H    -2.245099  -1.405906  -0.456393
H    -2.961798  -0.592333  0.947855
Sr    1.507390  -0.207848  4.531909
