30
Energy: -106347.662882 eV PBE+vdW (tier 2 basis)
C    0.790255  1.263054  1.335964
C    -0.182035  0.150492  1.574708
O    0.165468  -0.860417  2.262822
H    0.361522  2.113932  0.796615
H    1.633996  0.863800  0.754335
H    1.201731  1.611351  2.291642
N    -1.402839  0.260042  1.035375
C    -2.488806  -0.728959  0.915027
C    -3.179556  -1.125960  2.232357
O    -2.547190  -1.267076  3.334360
H    -1.569862  1.127922  0.534096
H    -3.258455  -0.198578  0.344587
C    -2.097132  -1.992537  0.085578
C    -2.544042  -1.913133  -1.378417
C    -4.067436  -1.884957  -1.548250
O    -4.832662  -1.592130  -0.612465
N    -4.531203  -2.167146  -2.775491
H    -2.547380  -2.881656  0.548116
H    -1.009664  -2.133780  0.127402
H    -2.127360  -2.767986  -1.929527
H    -2.129511  -1.015434  -1.866060
H    -3.924603  -2.422027  -3.545693
H    -5.531142  -2.122160  -2.947903
N    -4.465567  -1.369426  2.108309
C    -5.346665  -1.837368  3.171828
H    -4.819077  -1.357848  1.127884
H    -6.309216  -1.322722  3.081942
H    -4.906211  -1.618201  4.147636
H    -5.518761  -2.918027  3.077057
Sr    -0.543313  -1.836544  4.187514
