30
Energy: -106347.749381 eV PBE+vdW (tier 2 basis)
C    -1.697321  -1.189467  0.474066
C    -1.523624  -0.304607  1.663108
O    -1.533852  0.971858  1.525233
H    -1.698714  -2.251081  0.739166
H    -0.891330  -0.995901  -0.246958
H    -2.640898  -0.935401  -0.027810
N    -1.363347  -0.863355  2.856147
C    -1.323402  -0.086454  4.095805
C    -0.033009  0.755494  4.170116
O    -0.129751  2.015834  3.986050
H    -1.484281  -1.926929  3.008681
H    -2.126453  0.667537  4.048007
C    -1.585034  -0.958554  5.343696
C    -2.837103  -1.857879  5.268850
C    -2.578279  -3.201236  4.589601
O    -1.827889  -3.297469  3.593273
N    -3.195533  -4.272717  5.098418
H    -1.702300  -0.265552  6.187682
H    -0.716142  -1.582274  5.580048
H    -3.654195  -1.361760  4.719836
H    -3.216076  -2.017730  6.286253
H    -3.793183  -4.224004  5.914690
H    -3.073695  -5.175066  4.647068
N    1.160782  0.219724  4.379599
C    1.567445  -1.182526  4.516375
H    1.912415  0.907850  4.435388
H    0.862297  -1.849321  4.014335
H    1.661478  -1.459761  5.573949
H    2.546868  -1.297266  4.039767
Sr    -1.072874  3.074014  2.173563
