30
Energy: -106347.70945 eV PBE+vdW (tier 2 basis)
C    0.806011  -0.100541  0.273678
C    -0.168476  -0.637261  1.271318
O    -0.538382  -1.864707  1.209422
H    0.379689  -0.204102  -0.733822
H    1.726902  -0.698114  0.299127
H    1.055714  0.950591  0.447688
N    -0.632266  0.174733  2.204130
C    -1.697414  -0.052448  3.176871
C    -2.404595  1.346749  3.236572
O    -1.749270  2.330170  2.891015
H    -0.432971  1.191984  2.157856
H    -2.376106  -0.834077  2.805688
C    -1.152538  -0.378630  4.585463
C    -0.370342  -1.703669  4.760118
C    -1.238549  -2.939214  4.785533
O    -1.455317  -3.624921  3.738326
N    -1.798260  -3.293474  5.936162
H    -1.990511  -0.345621  5.296480
H    -0.478746  0.439630  4.875763
H    0.187434  -1.641939  5.705015
H    0.373394  -1.820559  3.962028
H    -1.610469  -2.793067  6.799315
H    -2.393395  -4.116776  5.987982
N    -3.662381  1.371476  3.705629
C    -4.428583  2.607256  3.875475
H    -4.125709  0.494321  3.916685
H    -5.284281  2.624587  3.189705
H    -3.770996  3.451407  3.652053
H    -4.788426  2.688615  4.907689
Sr    -1.113159  -3.988401  1.505035
