30
Energy: -106347.609315 eV PBE+vdW (tier 2 basis)
C    0.598300  -1.205782  1.189005
C    -0.236146  0.039834  1.238136
O    0.240588  1.166380  1.020705
H    0.025391  -2.131630  1.308251
H    1.351031  -1.149102  1.987513
H    1.145035  -1.231518  0.238671
N    -1.566837  -0.118074  1.530253
C    -2.507055  0.959624  1.859430
C    -2.836440  1.880776  0.671912
O    -4.065124  2.178305  0.445624
H    -1.905111  -1.063955  1.671551
H    -3.454682  0.454132  2.087253
C    -2.055167  1.728299  3.135642
C    -3.146212  2.516437  3.905575
C    -3.443880  3.914920  3.414000
O    -4.442344  4.160337  2.669113
N    -2.633411  4.898068  3.786876
H    -1.192761  2.368028  2.907246
H    -1.687751  0.955547  3.823208
H    -2.819061  2.589806  4.952443
H    -4.092209  1.958592  3.917465
H    -1.855054  4.739108  4.419064
H    -2.813160  5.854984  3.493370
N    -1.848960  2.350193  -0.051619
C    -2.009079  3.197206  -1.226631
H    -0.888459  2.036911  0.271424
H    -1.079450  3.169684  -1.801971
H    -2.202579  4.240476  -0.938235
H    -2.829807  2.833712  -1.855903
Sr    -5.796858  3.494122  0.956881
