30
Energy: -106347.714631 eV PBE+vdW (tier 2 basis)
C    -0.796578  0.790083  -0.149236
C    -1.128456  -0.051878  1.046737
O    -0.807267  -1.243711  1.142723
H    -1.249840  1.787332  -0.128339
H    -1.108546  0.262477  -1.058250
H    0.295622  0.898596  -0.201860
N    -1.818223  0.557180  2.071684
C    -1.966649  -0.102539  3.365929
C    -3.109173  -1.150713  3.321538
O    -4.188325  -1.004857  4.000848
H    -2.082092  1.532734  1.980821
H    -1.037697  -0.675712  3.529102
C    -2.139482  0.922286  4.489402
C    -1.878844  0.332059  5.899259
C    -2.812905  0.890526  6.946117
O    -4.064543  0.688884  6.851555
N    -2.319572  1.581916  7.961438
H    -3.145938  1.363461  4.434956
H    -1.433052  1.743895  4.315094
H    -0.829588  0.474894  6.184261
H    -2.052942  -0.755274  5.900120
H    -1.323489  1.749568  8.062921
H    -2.938189  1.949127  8.681714
N    -2.896123  -2.185328  2.544632
C    -3.843265  -3.269145  2.306656
H    -2.005736  -2.119967  1.989850
H    -3.378489  -3.987701  1.626913
H    -4.765124  -2.888989  1.847747
H    -4.090719  -3.779904  3.245553
Sr    -5.648279  -0.372875  5.573171
