30
Energy: -106348.054061 eV PBE+vdW (tier 2 basis)
C    -0.510718  -0.237060  -0.295266
C    0.149034  0.388482  0.887365
O    1.386498  0.619478  0.917745
H    -1.445888  -0.747681  -0.043456
H    0.189933  -0.947390  -0.749410
H    -0.718503  0.533158  -1.054356
N    -0.592191  0.741135  1.981144
C    -1.877617  1.419932  1.923524
C    -1.765819  2.671120  1.008260
O    -0.631927  3.146876  0.715468
H    -0.005320  1.042828  2.758363
H    -2.620816  0.746226  1.474267
C    -2.377324  1.770405  3.357595
C    -1.337899  2.051143  4.473654
C    -0.389562  3.223642  4.295412
O    0.567471  3.174946  3.471465
N    -0.580371  4.297819  5.056227
H    -2.969853  0.919687  3.717310
H    -3.071867  2.617442  3.289695
H    -0.713192  1.161888  4.651884
H    -1.912703  2.181526  5.399899
H    0.065129  5.082282  5.008724
H    -1.311716  4.335900  5.758748
N    -2.871990  3.222051  0.518181
C    -4.271903  2.830954  0.696093
H    -2.703834  4.044963  -0.061194
H    -4.795127  2.962067  -0.256998
H    -4.760171  3.458530  1.453030
H    -4.357437  1.781283  0.990623
Sr    1.641606  2.964207  1.376810
