30
Energy: -106348.564467 eV PBE+vdW (tier 2 basis)
C    -2.704642  0.229085  0.907105
C    -1.844062  0.167514  2.131183
O    -0.597505  0.050974  2.040183
H    -2.494044  -0.643582  0.275434
H    -2.424405  1.117389  0.323968
H    -3.777556  0.269830  1.121488
N    -2.461957  0.239500  3.331391
C    -1.853048  0.239507  4.673629
C    -0.825378  1.393743  4.796474
O    0.397338  1.204811  4.551902
H    -3.474188  0.316352  3.306188
H    -2.693309  0.487846  5.330503
C    -1.247729  -1.106957  5.193262
C    -1.369918  -2.371196  4.317713
C    -0.022440  -2.984213  3.982239
O    0.953219  -2.259130  3.643948
N    0.097094  -4.306483  4.028648
H    -1.725367  -1.309332  6.158159
H    -0.191310  -0.931885  5.423836
H    -1.844279  -2.147710  3.349622
H    -2.017964  -3.114524  4.796675
H    -0.665747  -4.907587  4.321328
H    0.977724  -4.746958  3.773692
N    -1.262051  2.592240  5.172486
C    -2.627111  3.007915  5.509115
H    -0.532570  3.301355  5.239648
H    -3.003640  2.474067  6.390857
H    -3.308670  2.867377  4.661386
H    -2.603882  4.074656  5.747981
Sr    1.547394  -0.105601  2.957957
