30
Energy: -106347.606163 eV PBE+vdW (tier 2 basis)
C    0.332335  -0.476574  0.191113
C    0.153975  -0.265051  1.659439
O    1.180281  -0.112777  2.414878
H    -0.618445  -0.564779  -0.343524
H    0.917703  -1.392778  0.030948
H    0.909107  0.355199  -0.234517
N    -1.071473  -0.240966  2.152199
C    -1.497961  -0.210094  3.548804
C    -2.764322  -1.129673  3.540231
O    -3.362789  -1.257623  2.472282
H    -1.880297  -0.489967  1.554252
H    -0.698624  -0.609719  4.187428
C    -1.947091  1.201003  3.992881
C    -0.863989  2.305023  4.054839
C    0.071768  2.191763  5.234861
O    1.191715  1.599175  5.143395
N    -0.309001  2.713062  6.395043
H    -2.449271  1.118948  4.967113
H    -2.717994  1.536701  3.285268
H    -1.376557  3.276201  4.098329
H    -0.262665  2.306424  3.137065
H    -1.176434  3.232070  6.489558
H    0.295003  2.650729  7.211143
N    -3.165437  -1.685738  4.698975
C    -2.468948  -1.705374  5.979395
H    -4.015373  -2.239319  4.612482
H    -3.103714  -2.222044  6.704982
H    -2.289199  -0.693637  6.368918
H    -1.516678  -2.252278  5.923070
Sr    2.738096  0.476266  3.883700
