30
Energy: -106347.486061 eV PBE+vdW (tier 2 basis)
C    0.298410  0.695623  0.370388
C    0.513547  0.184284  1.754711
O    1.692022  0.176493  2.260938
H    0.631703  1.743169  0.339878
H    -0.744386  0.649798  0.044452
H    0.932789  0.148528  -0.339423
N    -0.487386  -0.258554  2.504375
C    -1.820289  -0.746158  2.177343
C    -2.411680  -1.064947  3.582908
O    -1.623644  -1.348475  4.497860
H    -0.290126  -0.530998  3.484263
H    -2.415464  0.030964  1.679163
C    -1.799273  -2.036036  1.291199
C    -0.502562  -2.882853  1.294459
C    0.050676  -3.355230  2.626294
O    1.157969  -2.910759  3.064797
N    -0.623193  -4.266956  3.309883
H    -1.968909  -1.752386  0.244288
H    -2.661891  -2.656082  1.572060
H    0.308170  -2.340187  0.795235
H    -0.697979  -3.770771  0.673827
H    -1.495708  -4.655697  2.967673
H    -0.288938  -4.585183  4.215700
N    -3.745660  -1.050487  3.683784
C    -4.473226  -1.359365  4.914692
H    -4.287635  -0.739612  2.882940
H    -5.037699  -0.480509  5.248304
H    -3.749621  -1.636215  5.685521
H    -5.169447  -2.189439  4.745698
Sr    2.880617  -1.422910  3.351910
