30
Energy: -106347.800347 eV PBE+vdW (tier 2 basis)
C    0.521864  0.925637  0.407827
C    0.183241  1.163971  1.843775
O    0.927349  1.931794  2.552463
H    -0.185991  0.255463  -0.088627
H    1.535851  0.511810  0.329321
H    0.531953  1.893427  -0.112969
N    -0.895625  0.569712  2.337988
C    -1.517731  0.845430  3.637025
C    -0.778789  0.126164  4.789147
O    0.381832  0.522797  5.123350
H    -1.534724  0.034553  1.654894
H    -1.361709  1.913654  3.867553
C    -3.048360  0.640118  3.547275
C    -3.628793  -0.707097  3.041652
C    -3.666521  -0.853502  1.520380
O    -2.675585  -0.568386  0.820047
N    -4.794245  -1.329838  0.979983
H    -3.433636  1.445245  2.906346
H    -3.463989  0.847512  4.543723
H    -4.638457  -0.818681  3.457311
H    -3.056145  -1.581449  3.393941
H    -5.613144  -1.560401  1.529065
H    -4.834334  -1.480045  -0.024463
N    -1.359679  -0.861880  5.447189
C    -0.748152  -1.572171  6.573947
H    -2.294180  -1.139123  5.165484
H    0.163172  -2.088680  6.250470
H    -1.464757  -2.307013  6.949130
H    -0.498671  -0.868498  7.376650
Sr    2.019956  2.009476  4.495125
