30
Energy: -106347.406664 eV PBE+vdW (tier 2 basis)
C    0.395470  1.435142  4.163747
C    -0.710412  1.188298  5.135601
O    -0.442569  1.101528  6.387670
H    1.130067  0.619625  4.206029
H    0.922555  2.346009  4.481387
H    0.056918  1.563441  3.132375
N    -1.973536  1.064192  4.748814
C    -2.496455  0.622677  3.457521
C    -4.027982  0.788426  3.601713
O    -4.511647  0.636747  4.734477
H    -2.710806  0.997500  5.465195
H    -2.089678  1.238284  2.646909
C    -2.129908  -0.868762  3.213385
C    -2.980223  -1.941110  3.922295
C    -3.105901  -1.954026  5.433695
O    -2.151801  -1.649655  6.220935
N    -4.256704  -2.396337  5.922699
H    -1.066577  -1.002789  3.455113
H    -2.216035  -1.075253  2.137848
H    -2.545907  -2.922449  3.663026
H    -3.993508  -1.951574  3.498721
H    -5.048647  -2.593224  5.319653
H    -4.395532  -2.503789  6.922689
N    -4.758008  1.010157  2.499548
C    -4.282449  1.300427  1.145174
H    -5.756940  1.098538  2.676141
H    -3.610244  0.517309  0.773929
H    -3.783025  2.276876  1.088784
H    -5.150258  1.326809  0.480187
Sr    -0.766719  -0.661653  7.761344
