14
Energy: -10859.9896308 eV PBE+vdW (tier 2 basis)
N    -0.668030  0.956012  1.073825
C    -0.004424  -0.128470  1.782933
C    1.464712  -0.153061  1.386179
O    2.065431  0.764128  0.871204
H    -1.383983  1.390094  1.651863
H    0.012990  1.670707  0.815141
H    0.020773  0.016950  2.886770
C    -0.703355  -1.490312  1.559536
O    -0.536816  -2.032678  0.257054
H    -1.782438  -1.327171  1.684436
H    -0.374680  -2.200474  2.337242
H    0.357718  -2.405158  0.208517
O    2.064694  -1.340924  1.695156
H    3.002409  -1.237643  1.441142
