14
Energy: -10860.1950752 eV PBE+vdW (tier 2 basis)
N    -1.331732  0.472790  1.030099
C    -0.100918  -0.198832  1.447218
C    1.033137  0.244155  0.530987
O    0.945609  1.115678  -0.309105
H    -1.102761  1.287996  0.459140
H    -1.887542  0.771750  1.827501
H    0.219803  0.060675  2.474160
C    -0.331679  -1.726464  1.386696
O    -0.850523  -2.094145  0.123632
H    -1.027700  -1.995800  2.204792
H    0.606948  -2.272188  1.541490
H    -1.520269  -1.405260  -0.068332
O    2.181203  -0.433666  0.779971
H    2.843425  -0.084689  0.152749
