14
Energy: -10860.0700933 eV PBE+vdW (tier 2 basis)
N    0.135660  -0.528338  -0.285475
C    0.403847  -0.339310  1.155867
C    1.915826  -0.386277  1.455339
O    2.613633  0.601759  1.488791
H    0.326799  0.339363  -0.785876
H    0.773971  -1.219954  -0.682746
H    0.068146  0.668888  1.432323
C    -0.417608  -1.344573  1.967536
O    -0.063284  -2.710321  1.656638
H    -1.487059  -1.177772  1.772947
H    -0.228993  -1.225250  3.042752
H    -0.449727  -2.915182  0.789071
O    2.442586  -1.629547  1.607479
H    1.702203  -2.288487  1.606354
