14
Energy: -10860.1672355 eV PBE+vdW (tier 2 basis)
N    0.774346  -1.773423  -0.433446
C    0.443204  -0.524416  0.261511
C    1.104855  -0.469323  1.638862
O    0.600489  -0.827592  2.690866
H    1.779188  -1.945557  -0.439734
H    0.315573  -2.553979  0.040329
H    0.820748  0.319310  -0.336043
C    -1.079435  -0.397514  0.393166
O    -1.661217  -1.480970  1.108199
H    -1.513761  -0.417420  -0.614984
H    -1.326486  0.573554  0.859158
H    -1.250985  -1.461950  1.994165
O    2.389202  -0.027084  1.569053
H    2.752280  -0.092634  2.474898
