14
Energy: -10860.2188528 eV PBE+vdW (tier 2 basis)
N    -0.466514  0.131220  0.161866
C    -0.264634  0.361802  1.598600
C    1.236338  0.552225  1.899090
O    1.652649  0.964715  2.958498
H    1.377798  -0.091096  0.166645
H    -1.269810  -0.485164  0.021945
H    -0.783826  1.258538  1.977446
C    -0.753995  -0.864442  2.391930
O    -2.123569  -1.168610  2.126793
H    -0.561676  -0.700062  3.461874
H    -0.189459  -1.752741  2.073635
H    -2.676147  -0.519166  2.589174
O    2.028012  0.169948  0.880154
H    -0.664167  1.000832  -0.331650
