14
Energy: -10859.9949981 eV PBE+vdW (tier 2 basis)
N    0.420070  -0.982082  -0.333726
C    0.485501  -0.485148  1.025491
C    1.797606  -0.729019  1.810860
O    2.026518  -0.221880  2.884839
H    1.107772  -0.633340  -0.991806
H    0.235515  -1.978295  -0.415081
H    0.345766  0.607526  1.025834
C    -0.678628  -1.088663  1.833459
O    -0.636700  -2.518879  1.840393
H    -1.620249  -0.815978  1.340326
H    -0.669528  -0.674822  2.851791
H    -0.015674  -2.802714  2.529510
O    2.671504  -1.588233  1.228991
H    2.257527  -1.858472  0.380118
