14
Energy: -10860.201273 eV PBE+vdW (tier 2 basis)
N    -0.467708  0.042115  0.145832
C    -0.299990  0.352015  1.575339
C    1.193439  0.598580  1.885677
O    1.587020  1.051238  2.937060
H    1.365542  -0.087037  0.173994
H    -1.248387  -0.606046  0.026728
H    -0.856372  1.248364  1.892253
C    -0.768301  -0.826787  2.427471
O    -2.147546  -1.056504  2.117415
H    -0.620872  -0.572125  3.487678
H    -0.159119  -1.718020  2.189745
H    -2.440346  -1.844868  2.597935
O    2.004224  0.226150  0.879135
H    -0.698571  0.881905  -0.384090
