14
Energy: -10860.061346 eV PBE+vdW (tier 2 basis)
N    0.119114  0.170273  -0.016511
C    0.045311  -0.079285  1.413705
C    1.452821  -0.241358  1.955691
O    2.393656  -0.675640  1.324950
H    0.725491  -0.512092  -0.473577
H    -0.807453  0.145015  -0.439592
H    -0.425615  0.786422  1.902784
C    -0.763870  -1.343249  1.835432
O    -2.099382  -1.306383  1.342881
H    -0.839232  -1.383029  2.930546
H    -0.234879  -2.247641  1.487512
H    -2.089472  -1.605208  0.420968
O    1.530666  0.093142  3.272611
H    2.447844  -0.102967  3.547600
