14
Energy: -10860.0409525 eV PBE+vdW (tier 2 basis)
N    -0.120955  0.487553  0.102552
C    0.048101  0.071851  1.486283
C    1.533334  -0.049028  1.790329
O    2.415535  0.450585  1.125934
H    0.564368  1.202791  -0.138393
H    -1.058898  0.855684  -0.040280
H    -0.325360  0.813170  2.229175
C    -0.730793  -1.218028  1.749103
O    -2.116966  -0.887931  1.590512
H    -0.527582  -1.586791  2.766412
H    -0.416564  -1.976007  1.012590
H    -2.616405  -1.711752  1.497787
O    1.777718  -0.741323  2.937660
H    2.746497  -0.712928  3.061141
