14
Energy: -10860.023775 eV PBE+vdW (tier 2 basis)
N    0.260131  0.701313  0.345772
C    0.012995  -0.013013  1.598212
C    1.312896  -0.437158  2.267790
O    1.493982  -1.471102  2.875131
H    0.795577  1.552058  0.512871
H    -0.640563  0.969919  -0.051826
H    -0.511703  0.603105  2.363801
C    -0.870280  -1.226269  1.333132
O    -2.130267  -0.715684  0.875907
H    -0.982583  -1.812230  2.257686
H    -0.393297  -1.856189  0.563804
H    -2.661140  -1.460604  0.559922
O    2.268803  0.526236  2.155750
H    3.050448  0.183618  2.631049
