14
Energy: -10860.11043 eV PBE+vdW (tier 2 basis)
N    0.159105  0.173732  -0.135937
C    0.295528  -0.080202  1.304165
C    1.633948  -0.791805  1.496746
O    1.796845  -1.997464  1.403452
H    -0.523904  0.914142  -0.293132
H    -0.206423  -0.671107  -0.581625
H    0.353188  0.886865  1.823142
C    -0.835491  -0.926310  1.923706
O    -1.035858  -2.151613  1.232262
H    -1.778304  -0.365557  1.846892
H    -0.630450  -1.095714  2.998308
H    -0.175375  -2.614470  1.258997
O    2.646616  0.059935  1.773289
H    3.457575  -0.484434  1.828737
