14
Energy: -10860.1192609 eV PBE+vdW (tier 2 basis)
N    -0.302235  -0.794553  0.184927
C    -0.000329  -0.191201  1.475082
C    1.509924  0.109957  1.568896
O    2.233373  0.116677  0.596739
H    0.512637  -0.665391  -0.420862
H    -1.098974  -0.345056  -0.259705
H    -0.503541  0.784398  1.627035
C    -0.487435  -1.128013  2.591811
O    -0.331332  -0.448759  3.860450
H    0.090657  -2.065244  2.566000
H    -1.546778  -1.365833  2.414195
H    -0.428440  -1.094104  4.576548
O    1.977469  0.389964  2.800858
H    1.243333  0.243096  3.452245
