14
Energy: -10859.9194544 eV PBE+vdW (tier 2 basis)
N    2.259910  -2.144952  -0.281669
C    2.120687  -0.764603  0.191119
C    3.463481  -0.037012  -0.049197
O    3.685536  0.639731  -1.022760
H    2.990987  -2.659431  0.208381
H    1.384665  -2.663162  -0.208697
H    1.397668  -0.259035  -0.464930
C    1.620533  -0.612949  1.641706
O    2.509044  -1.221959  2.603289
H    0.610884  -1.045532  1.732608
H    1.563595  0.447637  1.923466
H    2.388870  -2.184116  2.552754
O    4.404008  -0.227583  0.912738
H    3.983132  -0.690035  1.680190
