14
Energy: -10859.924424 eV PBE+vdW (tier 2 basis)
N    2.308991  -2.229885  -0.347025
C    2.085709  -0.873938  0.164262
C    3.391956  -0.062538  -0.013290
O    3.576150  0.694866  -0.934802
H    2.820992  -2.795233  0.330910
H    1.418922  -2.696715  -0.520140
H    1.360190  -0.380527  -0.495520
C    1.534837  -0.804326  1.596540
O    2.462321  -1.498295  2.462197
H    0.549226  -1.297686  1.633122
H    1.419616  0.245788  1.914250
H    2.229240  -1.318896  3.384772
O    4.345065  -0.268946  0.932738
H    3.955783  -0.818668  1.653984
