14
Energy: -10860.234912 eV PBE+vdW (tier 2 basis)
N    -0.485809  0.077821  0.191968
C    -0.036417  0.064174  1.582095
C    1.464956  -0.140988  1.729118
O    2.195493  -0.574719  0.862135
H    0.106135  -0.547877  -0.360159
H    -0.386851  1.006481  -0.214327
H    -0.317508  1.011626  2.062873
C    -0.796862  -1.073193  2.317346
O    -2.183655  -0.943934  2.086641
H    -0.621593  -1.016330  3.399097
H    -0.414228  -2.048104  1.954371
H    -2.245280  -0.698287  1.139684
O    1.899656  0.176126  2.978391
H    2.854621  -0.031451  2.998287
