14
Energy: -10860.0299823 eV PBE+vdW (tier 2 basis)
N    -0.586696  1.112958  1.586304
C    0.029533  -0.210387  1.588489
C    1.452648  -0.073576  1.071764
O    1.781611  0.654932  0.158844
H    -0.356018  1.587976  0.711017
H    -1.602614  1.038126  1.645280
H    0.072276  -0.593114  2.621163
C    -0.731597  -1.240325  0.707638
O    -0.158150  -2.539863  0.663385
H    -0.741610  -0.878068  -0.329950
H    -1.778116  -1.268914  1.066508
H    -0.121624  -2.894710  1.565484
O    2.316759  -0.888228  1.726678
H    3.181597  -0.780809  1.283397
