14
Energy: -10860.0104999 eV PBE+vdW (tier 2 basis)
N    -0.707884  0.998563  1.415528
C    -0.038708  -0.234393  1.806351
C    1.429806  -0.149712  1.403743
O    1.905245  0.674346  0.655259
H    -0.248169  1.375351  0.584627
H    -1.681007  0.818033  1.173207
H    -0.054703  -0.343313  2.906325
C    -0.653873  -1.532264  1.252906
O    -0.526211  -1.528633  -0.168165
H    -1.715947  -1.563377  1.560822
H    -0.139860  -2.397522  1.705078
H    -0.901147  -2.352624  -0.511180
O    2.166055  -1.132437  1.992688
H    3.076402  -1.020017  1.657813
