14
Energy: -10860.0873926 eV PBE+vdW (tier 2 basis)
N    1.452918  -1.242926  -0.824848
C    2.032167  -0.598311  0.345172
C    3.455218  -0.020308  0.113863
O    3.912476  0.152712  -0.993382
H    2.087446  -1.971318  -1.160392
H    1.409149  -0.568050  -1.589328
H    1.394806  0.269977  0.595412
C    1.955110  -1.576211  1.532436
O    2.379952  -0.983140  2.779123
H    2.627314  -2.430840  1.370677
H    0.929026  -1.960402  1.607434
H    1.646374  -0.454898  3.131451
O    4.149200  0.313832  1.224708
H    3.637842  0.006883  2.017674
