14
Energy: -10860.2784854 eV PBE+vdW (tier 2 basis)
N    0.168517  0.213273  -0.060252
C    -0.014435  0.026072  1.388342
C    1.367302  -0.252717  2.033195
O    1.500722  -0.689198  3.156707
H    -0.480048  0.899899  -0.440376
H    -0.000412  -0.677466  -0.535044
H    -0.360847  0.974590  1.829949
C    -1.012252  -1.077410  1.759014
O    -0.672471  -2.316488  1.131878
H    -2.010045  -0.810787  1.383785
H    -1.061887  -1.176785  2.853240
H    0.038298  -2.724031  1.652885
O    2.394748  0.046683  1.223812
H    1.939811  0.317366  0.372866
