14
Energy: -10860.097347 eV PBE+vdW (tier 2 basis)
N    0.044592  0.165316  -0.006408
C    0.016974  -0.069026  1.427839
C    1.432786  -0.190971  1.957247
O    2.394333  -0.534672  1.302622
H    0.835941  -0.336585  -0.414263
H    -0.814791  -0.197100  -0.421920
H    -0.455200  0.788933  1.939067
C    -0.768602  -1.345395  1.844012
O    -2.080839  -1.350277  1.285619
H    -0.795907  -1.437430  2.942567
H    -0.266631  -2.230302  1.428292
H    -2.618055  -0.698955  1.763814
O    1.499718  0.082545  3.289381
H    2.428459  -0.072523  3.550571
