14
Energy: -10860.0082514 eV PBE+vdW (tier 2 basis)
N    -0.186685  0.001420  -0.130521
C    -0.001296  0.067076  1.324111
C    1.422365  -0.305894  1.742301
O    2.283147  0.480550  2.073537
H    0.093284  -0.914036  -0.486251
H    0.399847  0.695230  -0.593533
H    -0.138321  1.109420  1.640818
C    -1.059981  -0.793635  2.008056
O    -0.872809  -0.667603  3.418516
H    -0.953597  -1.842685  1.680697
H    -2.050285  -0.427942  1.688594
H    -1.437743  -1.316510  3.861627
O    1.658737  -1.646821  1.615524
H    2.597671  -1.774112  1.851400
