14
Energy: -10860.0915533 eV PBE+vdW (tier 2 basis)
N    0.004265  0.642028  0.172939
C    0.011697  0.042677  1.501155
C    1.431134  0.062370  2.042447
O    2.361571  0.670970  1.560308
H    -0.827140  1.209653  0.027907
H    0.827497  1.233473  0.053572
H    -0.597390  0.591654  2.247897
C    -0.574151  -1.394029  1.429131
O    -0.957454  -1.939722  2.680771
H    0.134773  -2.043878  0.885371
H    -1.488333  -1.333556  0.824919
H    -0.160016  -1.992751  3.232844
O    1.567117  -0.700072  3.170354
H    2.505124  -0.628164  3.434003
