14
Energy: -10860.0946452 eV PBE+vdW (tier 2 basis)
N    0.703497  -0.561416  3.053212
C    0.660842  -1.035665  1.670792
C    1.184666  0.008263  0.698094
O    0.817775  0.128380  -0.457002
H    1.598828  -0.122547  3.262798
H    0.589353  -1.345705  3.694519
H    1.294814  -1.928776  1.474169
C    -0.784428  -1.426002  1.295040
O    -0.876385  -2.099617  0.052521
H    -1.415397  -0.520224  1.329072
H    -1.161566  -2.119590  2.060026
H    -0.527204  -1.476701  -0.611789
O    2.158965  0.788870  1.230999
H    2.441238  1.396730  0.519549
