14
Energy: -10859.8969691 eV PBE+vdW (tier 2 basis)
N    -0.514375  0.799482  2.174296
C    0.008523  -0.518063  1.780777
C    1.391343  -0.291691  1.164471
O    1.667841  -0.285703  -0.010988
H    -1.419294  0.688756  2.633291
H    0.109533  1.242018  2.849237
H    0.148825  -1.213595  2.634989
C    -0.942522  -1.172579  0.774355
O    -0.625179  -2.537385  0.520420
H    -0.866623  -0.653909  -0.188499
H    -1.978711  -1.059830  1.143157
H    -0.814322  -3.049772  1.321587
O    2.312476  -0.051060  2.146545
H    3.155483  0.129330  1.686360
