14
Energy: -10860.0372568 eV PBE+vdW (tier 2 basis)
N    -0.114419  1.096395  0.716198
C    -0.297312  0.247808  1.895734
C    1.059997  -0.235623  2.398367
O    1.522763  -0.040858  3.498661
H    -0.931917  1.694403  0.596107
H    -0.055104  0.507361  -0.117279
H    -0.694890  0.861690  2.714624
C    -1.253461  -0.956271  1.690079
O    -0.962801  -1.712806  0.520654
H    -2.270570  -0.565276  1.545884
H    -1.260446  -1.590785  2.595860
H    -0.057192  -2.056954  0.607653
O    1.712240  -0.985823  1.451390
H    2.563112  -1.247260  1.855070
