17
Energy: -239082.341877 eV PBE+vdW (tier 2 basis)
N    -0.765264  -1.857986  1.655781
C    0.082638  -0.676851  1.431392
C    1.529502  -1.142900  1.531786
O    2.123399  -1.383475  2.618457
H    -1.743748  -1.593081  1.517176
H    -0.579149  -2.584957  0.960632
H    -0.018708  -0.215113  0.434035
C    -0.273556  0.401927  2.480621
C    -0.378709  -0.098965  3.903915
O    -1.363688  0.203778  4.628902
O    0.580030  -0.823950  4.425381
H    -1.241185  0.843170  2.211541
H    0.457877  1.226947  2.462163
O    2.133040  -1.310784  0.396509
H    3.054749  -1.637984  0.511090
H    1.463188  -1.167095  3.497116
Ba    -0.734418  -0.980685  6.715505
