17
Energy: -239081.679076 eV PBE+vdW (tier 2 basis)
N    0.563366  0.392110  0.671807
C    0.086247  -0.214858  1.883483
C    1.170497  -1.190867  2.364839
O    1.841510  -1.917876  1.710425
H    -0.083312  1.072287  0.275802
H    1.491291  0.805755  0.740373
H    -0.132897  0.489359  2.724995
C    -1.213839  -0.986720  1.535541
C    -1.990972  -1.540169  2.694888
O    -1.722193  -1.257614  3.883283
O    -3.005640  -2.341033  2.492067
H    -0.977726  -1.786850  0.815668
H    -1.886331  -0.295757  0.996859
O    1.355209  -1.154941  3.798140
H    2.138182  -1.733556  3.932941
H    -3.171576  -2.533848  1.546094
Ba    -0.364650  -0.550628  5.749730
