17
Energy: -239083.031013 eV PBE+vdW (tier 2 basis)
N    -0.329942  0.248666  0.227015
C    -0.024305  -0.281268  1.617032
C    1.508500  -0.184460  1.772944
O    1.973817  -0.012713  2.927750
H    0.481276  -0.035164  -0.365175
H    -1.208381  -0.106391  -0.175631
H    -0.531547  0.354293  2.350513
C    -0.503034  -1.756634  1.716884
C    0.287443  -2.626872  2.702574
O    1.502305  -2.789204  2.589787
O    -0.349369  -3.264228  3.662670
H    -0.351217  -2.254873  0.745021
H    -1.578787  -1.778932  1.934024
O    2.188302  -0.429995  0.728058
H    -0.376583  1.278241  0.218714
H    -1.311908  -3.099544  3.682583
Ba    3.846428  -1.671924  2.419234
