17
Energy: -239082.801617 eV PBE+vdW (tier 2 basis)
N    -0.435138  -1.552773  0.767374
C    -0.151855  -0.155082  1.188372
C    0.913558  -0.154043  2.298262
O    0.732584  0.268071  3.450057
H    -0.858008  -1.561184  -0.165553
H    0.409804  -2.127079  0.710564
H    0.267571  0.449035  0.366227
C    -1.471326  0.475234  1.676955
C    -1.984073  -0.307840  2.866382
O    -2.284090  0.266586  3.947452
O    -2.004896  -1.596271  2.773844
H    -2.208668  0.431638  0.860721
H    -1.345749  1.530611  1.937937
O    2.054620  -0.652222  1.875822
H    2.745311  -0.640269  2.573215
H    -1.467624  -1.853415  1.874715
Ba    -0.669023  0.862002  5.612653
