17
Energy: -239082.928936 eV PBE+vdW (tier 2 basis)
N    1.736111  0.742273  0.380226
C    1.028380  -0.313212  1.208069
C    0.536810  0.483833  2.434756
O    0.648550  1.692664  2.472219
H    2.760318  0.655814  0.413861
H    1.443791  0.751360  -0.604039
H    0.146533  -0.647603  0.642221
C    1.917537  -1.519094  1.525827
C    1.133159  -2.785668  1.869922
O    1.711892  -3.666861  2.585297
O    -0.039522  -2.958774  1.397257
H    2.629782  -1.313535  2.335435
H    2.512054  -1.786502  0.635728
O    0.002421  -0.292994  3.370564
H    -0.302653  0.272959  4.112304
H    1.470112  1.650651  0.851990
Ba    -0.168274  -5.278309  2.421363
