17
Energy: -239082.403446 eV PBE+vdW (tier 2 basis)
N    0.612479  0.009562  0.221515
C    -0.345526  0.086091  1.285893
C    0.434049  0.646789  2.490609
O    0.876890  -0.028197  3.444848
H    0.305022  0.350209  -0.683334
H    1.153611  -0.846565  0.150827
H    -1.084236  0.859487  1.030132
C    -1.080767  -1.272243  1.557509
C    -2.029594  -1.275704  2.728307
O    -1.640304  -1.516833  3.889395
O    -3.300415  -0.979402  2.574581
H    -0.328537  -2.052486  1.735739
H    -1.604690  -1.529826  0.627289
O    0.634260  1.936751  2.380340
H    1.246412  2.275203  3.067633
H    -3.558735  -0.848063  1.640764
Ba    0.296542  -1.483569  5.394407
