17
Energy: -239082.575112 eV PBE+vdW (tier 2 basis)
N    0.191720  0.135885  0.026464
C    -0.130649  0.073664  1.425215
C    1.049326  -0.189626  2.385784
O    1.150495  0.335059  3.515099
H    0.781730  0.926572  -0.225525
H    0.594186  -0.719667  -0.354820
H    -0.529018  1.055990  1.722929
C    -1.255925  -0.976670  1.619620
C    -2.052990  -0.894499  2.894624
O    -1.761435  -0.139835  3.842814
O    -3.119150  -1.647105  3.039153
H    -0.861597  -2.002986  1.522678
H    -1.938749  -0.839587  0.763314
O    1.961542  -0.999089  1.903160
H    2.710628  -1.115007  2.526827
H    -3.315134  -2.204339  2.258651
Ba    -0.326983  1.131244  5.375013
