17
Energy: -239083.099271 eV PBE+vdW (tier 2 basis)
N    0.106859  0.099938  0.090119
C    0.095088  -0.146389  1.576173
C    1.520617  -0.151535  2.143375
O    1.658929  -0.211591  3.405129
H    0.875321  -0.411222  -0.364356
H    0.216784  1.093156  -0.142210
H    -0.450363  0.690588  2.035121
C    -0.647785  -1.462917  1.885994
C    -1.990126  -1.556357  1.171937
O    -2.857362  -2.310603  1.817613
O    -2.210631  -1.008206  0.091257
H    -0.788397  -1.554423  2.968950
H    -0.054846  -2.335904  1.566367
O    2.509292  -0.103260  1.340389
H    -0.866774  -0.262384  -0.237687
H    -3.687293  -2.388421  1.297739
Ba    4.162689  -0.097471  3.319093
