17
Energy: -239082.13808 eV PBE+vdW (tier 2 basis)
N    0.277007  0.422023  0.303920
C    0.268848  -0.123260  1.695784
C    1.701550  -0.033029  2.258819
O    2.534990  0.714301  1.691494
H    0.421245  -0.363555  -0.342453
H    -0.671075  0.747238  0.088165
H    -0.320177  0.582310  2.307771
C    -0.395521  -1.525520  1.778327
C    -0.984549  -1.888693  3.138973
O    -2.145186  -2.018594  3.385477
O    0.019615  -2.057087  4.082275
H    0.312343  -2.308668  1.465242
H    -1.247398  -1.543323  1.088550
O    2.048503  -0.670649  3.319699
H    1.309085  -1.250861  3.721132
H    -0.374478  -2.291692  4.949686
Ba    2.444944  2.229443  -0.175310
