17
Energy: -239082.281997 eV PBE+vdW (tier 2 basis)
N    0.213135  -0.110435  -0.019214
C    0.346490  -0.214700  1.395114
C    1.605594  -1.016917  1.765281
O    2.412658  -1.418180  0.886651
H    -0.068755  -0.961390  -0.500460
H    -0.348769  0.677964  -0.328596
H    0.543084  0.800175  1.785325
C    -0.937432  -0.764373  2.152462
C    -1.035547  -0.436777  3.603343
O    -0.053644  -0.512692  4.412026
O    -2.189031  -0.032945  4.033992
H    -0.992502  -1.861519  2.055198
H    -1.824617  -0.361891  1.649983
O    1.865992  -1.259635  3.022910
H    0.826633  -0.842862  3.891352
H    -2.179542  0.157092  4.999808
Ba    4.231453  -2.256796  2.327900
