17
Energy: -239082.833638 eV PBE+vdW (tier 2 basis)
N    0.191052  -0.306595  0.231472
C    0.295992  -0.354714  1.695219
C    1.828156  -0.377946  1.989922
O    2.317203  -0.310853  3.138298
H    -0.308446  -1.091155  -0.186442
H    -0.212014  0.560883  -0.121585
H    -0.095115  0.572187  2.141013
C    -0.486838  -1.559288  2.270398
C    -0.667272  -1.662976  3.773291
O    -0.053251  -0.983341  4.606646
O    -1.523781  -2.551768  4.233368
H    -0.030887  -2.508602  1.937398
H    -1.493624  -1.536811  1.822679
O    2.557674  -0.437696  0.934113
H    1.830103  -0.416620  0.179406
H    -1.998379  -3.047874  3.536625
Ba    2.102225  -0.147197  5.551072
