17
Energy: -239082.279466 eV PBE+vdW (tier 2 basis)
N    -0.458833  0.396988  0.339826
C    -0.277374  -0.484350  1.532949
C    1.171134  -0.269895  2.046321
O    2.011942  0.240831  1.340708
H    -0.606959  1.341243  0.719269
H    0.504378  0.478820  -0.043087
H    -0.984184  -0.181086  2.316935
C    -0.447577  -1.999457  1.249722
C    -1.838009  -2.409057  0.834128
O    -2.435962  -1.838405  -0.101307
O    -2.465104  -3.390762  1.429871
H    -0.131844  -2.546721  2.147627
H    0.236505  -2.307630  0.440465
O    1.326860  -0.733713  3.284902
H    2.254391  -0.597645  3.575331
H    -1.950417  -3.806079  2.150922
Ba    -2.370948  0.033917  -1.634582
