17
Energy: -239082.957589 eV PBE+vdW (tier 2 basis)
N    0.780908  -0.582860  0.194003
C    0.507418  -0.334057  1.630940
C    1.822118  -0.521654  2.413782
O    2.737447  -1.216972  1.970916
H    -0.109013  -0.661545  -0.307531
H    1.224248  0.252918  -0.201144
H    0.163734  0.702109  1.795379
C    -0.619931  -1.241916  2.186400
C    -0.440900  -2.745212  2.034349
O    0.492275  -3.261074  1.410567
O    -1.334668  -3.543538  2.575610
H    -1.566429  -0.966591  1.690251
H    -0.782648  -1.015659  3.251949
O    1.966811  0.047412  3.590719
H    1.242032  0.655638  3.836964
H    -2.049454  -3.083258  3.059062
Ba    2.563085  -2.868256  0.046839
