17
Energy: -239082.236439 eV PBE+vdW (tier 2 basis)
N    -0.003343  -0.682639  0.218210
C    0.220184  -0.256767  1.628559
C    1.709082  -0.390381  1.956749
O    2.430978  -1.155014  1.292910
H    -0.983599  -1.057818  0.209504
H    -0.047417  0.162392  -0.361354
H    -0.086498  0.793468  1.765674
C    -0.572291  -1.133873  2.637688
C    -2.047649  -1.276279  2.266734
O    -2.425806  -1.470185  1.119200
O    -2.832533  -1.205079  3.331609
H    -0.480651  -0.726924  3.651660
H    -0.158323  -2.155026  2.668930
O    2.245195  0.254336  2.960211
H    1.631624  0.862659  3.420011
H    -3.766643  -1.352213  3.066575
Ba    1.937973  -2.364188  -0.801967
