17
Energy: -239083.221554 eV PBE+vdW (tier 2 basis)
N    -0.804056  0.683136  0.579900
C    -0.257680  -0.124784  1.700748
C    1.184382  -0.521037  1.361693
O    1.640198  -0.493807  0.213551
H    -1.817227  0.774635  0.701466
H    -0.451324  1.641544  0.672520
H    -0.207679  0.457807  2.634728
C    -1.125300  -1.362667  2.027307
C    -1.358716  -2.344003  0.892985
O    -0.964630  -2.148304  -0.264215
O    -2.022254  -3.452144  1.135835
H    -2.109546  -1.021520  2.391183
H    -0.675207  -1.898395  2.877895
O    1.866346  -0.890977  2.421491
H    2.785941  -1.144108  2.185518
H    -2.301335  -3.556352  2.067621
Ba    0.095085  -0.524023  -1.852227
