17
Energy: -239082.338119 eV PBE+vdW (tier 2 basis)
N    0.039676  0.056468  0.133334
C    -0.440438  -0.072083  1.503631
C    0.752286  -0.341462  2.401107
O    1.274375  -1.495573  2.558230
H    0.699878  -0.659387  -0.165519
H    0.419168  0.978298  -0.078138
H    -0.843968  0.902470  1.806991
C    -1.600417  -1.083303  1.631941
C    -1.370140  -2.506560  1.185395
O    -2.316025  -3.169502  0.672063
O    -0.215474  -3.091503  1.360522
H    -2.445758  -0.691957  1.052466
H    -1.945041  -1.135955  2.680326
O    1.308680  0.694028  2.947083
H    2.135627  0.464297  3.428794
H    0.690615  -2.245589  2.058797
Ba    -1.246043  -5.368684  0.405978
