17
Energy: -239083.128141 eV PBE+vdW (tier 2 basis)
N    -0.507712  0.327827  0.295506
C    0.024037  0.022731  1.674051
C    1.557135  -0.100238  1.562566
O    2.135423  0.439056  0.559956
H    -0.612092  -0.639247  -0.156324
H    0.188012  0.882100  -0.226549
H    -0.161247  0.895799  2.317991
C    -0.672729  -1.205324  2.273629
C    -0.717579  -2.385426  1.319506
O    -0.971646  -3.527237  1.933148
O    -0.558494  -2.269792  0.103015
H    -1.708992  -0.961241  2.556684
H    -0.168466  -1.492315  3.204441
O    2.194349  -0.681299  2.492089
H    -1.408651  0.819402  0.311531
H    -1.070773  -4.246496  1.272546
Ba    4.449426  -0.164300  1.491210
