17
Energy: -239082.300634 eV PBE+vdW (tier 2 basis)
N    -0.182992  -0.284001  0.065412
C    0.259235  -0.376905  1.420725
C    1.442055  -1.315511  1.704335
O    1.857979  -1.585594  2.874069
H    -0.475863  -1.164990  -0.353359
H    0.461992  0.197691  -0.556332
H    0.649089  0.616425  1.715541
C    -0.966436  -0.697765  2.335301
C    -0.864364  -0.411543  3.810712
O    -1.882497  -0.029237  4.455199
O    0.261326  -0.568837  4.457188
H    -1.258336  -1.757312  2.229068
H    -1.806193  -0.116051  1.936338
O    2.045838  -1.813951  0.675552
H    2.812818  -2.374814  0.933240
H    1.221346  -1.130042  3.630767
Ba    -0.955999  0.128436  6.733244
