17
Energy: -239082.735268 eV PBE+vdW (tier 2 basis)
N    -0.143180  0.467181  0.286807
C    0.231776  -0.047334  1.660233
C    1.694625  -0.513250  1.640146
O    2.253009  -0.766287  2.751610
H    0.189849  1.426325  0.128057
H    -1.189525  0.452465  0.220114
H    0.137203  0.792568  2.362043
C    -0.695290  -1.200688  2.091846
C    -2.178100  -0.858039  2.233488
O    -2.602144  -0.059156  1.186609
O    -2.893273  -1.253083  3.103939
H    -0.358120  -1.564023  3.068982
H    -0.615944  -2.042367  1.383458
O    2.284101  -0.656736  0.518106
H    0.282811  -0.128813  -0.439547
H    -3.563489  0.106615  1.286793
Ba    4.437691  -1.450378  1.736318
