17
Energy: -239082.857655 eV PBE+vdW (tier 2 basis)
N    0.270823  -0.143868  0.235418
C    0.332210  -0.254221  1.742137
C    1.881595  -0.448714  1.992213
O    2.297403  -0.325103  3.195515
H    1.294525  -0.442450  0.002799
H    -0.411238  -0.758623  -0.222572
H    -0.008929  0.690485  2.181166
C    -0.556043  -1.424154  2.210138
C    -0.738300  -1.598424  3.713266
O    -0.126167  -0.963759  4.573956
O    -1.603596  -2.509132  4.118528
H    -0.161168  -2.380154  1.823368
H    -1.565385  -1.307197  1.780643
O    2.549302  -0.694891  0.985870
H    0.109652  0.815836  -0.091759
H    -2.073601  -2.970248  3.395774
Ba    2.138918  -0.287383  5.541541
