 14
Energy: -19690.17461215.7 eV PBE+vdW (tier 2 basis)
N   -0.009589    0.827745   0.068351
C   -0.192962    0.328015   1.440580
C    1.165151    0.083143   2.124693
O    1.777327   -1.121017   1.876158
H    0.480128    1.723178   0.087360
H    0.564432    0.190394  -0.487045
H   -0.667174    1.127319   2.024079
C   -1.136675   -0.877019   1.415987
S   -1.673551   -1.478065   3.053156
H   -0.735305   -1.711569   0.815035
H   -2.061517   -0.568158   0.912311
H   -0.457972   -1.863331   3.508524
O    1.737170    0.918615   2.780615
H    1.180539   -1.698251   1.366197
