 14
Energy: -19690.50435115.7 eV PBE+vdW (tier 2 basis)
N    0.158528   -0.088896  -0.191708
C   -0.039296   -0.012038   1.269192
C    1.353276    0.079814   1.943060
O    2.323584    0.466236   1.096046
H    0.252753   -1.058188  -0.500504
H   -0.627570    0.317000  -0.696756
H   -0.532616    0.949596   1.484130
C   -0.902807   -1.137703   1.861208
S   -1.648976   -0.779966   3.489203
H   -0.332407   -2.076008   1.911749
H   -1.764846   -1.304346   1.201324
H   -0.465533   -0.599406   4.123642
O    1.557382   -0.146572   3.116291
H    1.862528    0.509477   0.212122
