 14
Energy: -19690.31778915.7 eV PBE+vdW (tier 2 basis)
N    0.293011   -1.214246   0.097163
C   -0.013979   -0.710348   1.448374
C    1.309203   -0.243470   2.060697
O    1.947506   -0.807646   2.917972
H    0.733501   -0.480420  -0.458935
H   -0.573580   -1.466414  -0.379659
H   -0.694326    0.163599   1.450571
C   -0.635703   -1.830886   2.281247
S   -1.299423   -1.283619   3.891989
H    0.127013   -2.582496   2.516856
H   -1.430859   -2.327054   1.710855
H   -2.425447   -0.709328   3.408499
O    1.718710    0.917979   1.471686
H    2.582374    1.135351   1.873682
