 14
Energy: -19690.40890515.7 eV PBE+vdW (tier 2 basis)
N    0.145293   -0.136022  -0.058655
C    0.056029   -0.195193   1.401414
C    1.416443    0.237775   1.944104
O    2.458642   -0.319512   1.669768
H   -0.714473   -0.480520  -0.485984
H    0.915031   -0.725234  -0.382040
H   -0.699059    0.531333   1.732937
C   -0.300929   -1.592442   1.950659
S   -0.382046   -1.729532   3.773540
H    0.479828   -2.307363   1.656085
H   -1.249671   -1.925905   1.509109
H   -1.397940   -0.852676   3.950577
O    1.334873    1.318043   2.755399
H    2.246647    1.501583   3.058300
