 14
Energy: -19690.36851415.7 eV PBE+vdW (tier 2 basis)
N    0.203589   -1.643271   0.709283
C   -0.067474   -0.263110   1.057139
C    1.113158    0.598793   1.574429
O    2.245618   -0.080701   1.882017
H    0.908029   -1.795980  -0.005061
H    0.302039   -2.261293   1.513915
H   -0.422816    0.265226   0.157328
C   -1.210147   -0.194388   2.084885
S   -0.893698   -1.127750   3.628988
H   -2.104140   -0.665392   1.658172
H   -1.439748    0.848586   2.325021
H    0.029956   -0.280202   4.141224
O    1.035733    1.797159   1.713519
H    2.058902   -1.026676   1.701143
