 14
Energy: -19690.38757615.7 eV PBE+vdW (tier 2 basis)
N    0.242939   -0.434131  -0.193915
C    0.057256   -0.068405   1.203364
C    1.262449   -0.557862   2.033232
O    2.219052   -1.106817   1.532374
H    1.168881   -0.857585  -0.295973
H    0.190279    0.376003  -0.805854
H    0.011755    1.027195   1.345034
C   -1.297214   -0.659202   1.674508
S   -1.879669   -0.104940   3.334556
H   -1.266651   -1.753967   1.648270
H   -2.062852   -0.337391   0.960197
H   -1.633022   -1.256988   3.996787
O    1.210435   -0.323133   3.360574
H    0.316767    0.041823   3.591876
