 14
Energy: -19690.42299715.7 eV PBE+vdW (tier 2 basis)
N   -0.109200    0.657762   0.098442
C   -0.074881    0.203117   1.480358
C    1.301565    0.391287   2.105464
O    1.500738    0.664528   3.269119
H    0.608876    0.184290  -0.451738
H   -1.016013    0.408904  -0.304201
H   -0.749551    0.837277   2.073952
C   -0.488587   -1.278064   1.722980
S   -2.157066   -1.673875   1.100072
H   -0.419560   -1.536960   2.787398
H    0.180857   -1.948633   1.165738
H   -2.842279   -0.975325   2.035628
O    2.307657    0.144625   1.219700
H    3.139694    0.257231   1.719006
