 14
Energy: -19690.22036615.7 eV PBE+vdW (tier 2 basis)
N    1.683663   -1.547963   0.934634
C    0.927124   -0.489786   1.570744
C    1.891721    0.382860   2.380870
O    2.909802   -0.030729   2.880752
H    1.101837   -2.368928   0.770052
H    2.441229   -1.829935   1.560602
H    0.465211    0.146944   0.789578
C   -0.255450   -0.931217   2.489018
S    0.135486   -2.132180   3.802223
H   -0.995451   -1.452478   1.865466
H   -0.761810   -0.053254   2.916606
H    1.032949   -1.368743   4.469309
O    1.509175    1.676941   2.576399
H    0.707515    1.864466   2.056745
