 14
Energy: -19690.27637115.7 eV PBE+vdW (tier 2 basis)
N    1.580537   -1.655599   1.099646
C    0.921195   -0.482436   1.632289
C    1.821969    0.422381   2.505399
O    2.874868    0.080259   2.982896
H    1.766535   -2.303301   1.870369
H    2.489363   -1.405676   0.709590
H    0.570919    0.135310   0.782791
C   -0.344366   -0.895167   2.415139
S   -0.060212   -2.039111   3.810744
H   -0.995721   -1.459472   1.735779
H   -0.904130   -0.019770   2.768791
H    0.670063   -1.193175   4.575723
O    1.348788    1.687972   2.734869
H    0.514192    1.822785   2.251973
