 14
Energy: -19690.52893315.7 eV PBE+vdW (tier 2 basis)
N   -0.757327    0.221385   2.602686
C    0.171410   -0.778708   2.062653
C    1.530976   -0.108566   1.758729
O    1.455716    1.235525   1.696341
H   -0.657423    0.296142   3.615334
H   -1.720616   -0.078053   2.428592
H    0.370055   -1.614315   2.752645
C   -0.347339   -1.354292   0.732866
S   -1.966432   -2.204053   0.862402
H    0.370942   -2.096719   0.368569
H   -0.428949   -0.567954  -0.027601
H   -2.732179   -1.174965   0.436586
O    2.546794   -0.733069   1.555577
H    0.507372    1.431642   1.936621
