 14
Energy: -19690.47212015.7 eV PBE+vdW (tier 2 basis)
N    0.020048    0.465882   0.122439
C   -0.000807   -0.005187   1.494091
C    1.431636   -0.122138   1.996332
O    2.392181   -0.380752   1.303288
H   -0.873611    0.251042  -0.324544
H    0.764382   -0.009114  -0.391892
H   -0.520830    0.729361   2.129725
C   -0.677071   -1.388681   1.727931
S   -2.387360   -1.480568   1.100768
H   -0.658570   -1.664553   2.790070
H   -0.136867   -2.162272   1.163819
H   -2.931754   -0.628203   2.001097
O    1.507882    0.041601   3.344659
H    2.444300   -0.104580   3.583419
