 14
Energy: -19690.24696815.7 eV PBE+vdW (tier 2 basis)
N    0.123675   -1.598081   1.085350
C    0.141660   -0.207496   1.494262
C    1.606921    0.221950   1.647248
O    1.897737    1.508961   1.302715
H   -0.816049   -1.986423   1.169189
H    0.767970   -2.138261   1.665863
H   -0.344892    0.391998   0.704768
C   -0.562417    0.127593   2.841335
S   -2.342291   -0.274240   2.875230
H   -0.517322    1.208136   3.041682
H   -0.055707   -0.383622   3.669736
H   -2.207022   -1.602600   3.092096
O    2.462288   -0.494639   2.106645
H    1.117451    1.918724   0.889881
