 14
Energy: -19690.39840115.7 eV PBE+vdW (tier 2 basis)
N   -0.786870    0.275717   1.357205
C    0.056653   -0.793152   1.862912
C    1.477332   -0.329712   2.190409
O    2.326750   -1.066114   2.652397
H   -1.747367   -0.054519   1.261794
H   -0.472408    0.560318   0.427107
H   -0.354686   -1.113684   2.836416
C    0.148823   -2.074120   0.993425
S    0.776940   -1.795365  -0.701125
H   -0.862028   -2.479637   0.854090
H    0.758025   -2.839035   1.488976
H    2.083281   -1.692831  -0.362704
O    1.710070    0.971090   1.897715
H    2.643488    1.130041   2.141383
