 14
Energy: -19690.44922715.7 eV PBE+vdW (tier 2 basis)
N    0.009204    0.152034   0.084605
C    0.052226    0.011326   1.544668
C    1.386990   -0.576374   2.014467
O    1.785978   -1.687541   1.730964
H    0.656188    0.877528  -0.225457
H    0.305952   -0.721437  -0.356084
H   -0.066080    1.010621   1.984662
C   -1.105262   -0.885180   1.995370
S   -1.205694   -1.134633   3.800769
H   -0.968164   -1.896226   1.586890
H   -2.046941   -0.485306   1.603129
H   -1.539260    0.138339   4.117306
O    2.120113    0.316127   2.731698
H    2.955141   -0.138717   2.960919
