 14
Energy: -19690.35017615.7 eV PBE+vdW (tier 2 basis)
N   -0.381292   -2.210521   1.831822
C    0.272680   -0.909072   1.762086
C    1.804759   -0.950719   1.793215
O    2.540774   -0.376328   1.019420
H   -0.022654   -2.754546   2.617355
H   -0.211755   -2.750450   0.984411
H    0.015288   -0.443195   0.802105
C   -0.216508    0.008196   2.901818
S   -1.967945    0.504142   2.764068
H    0.407349    0.907370   2.974316
H   -0.133865   -0.522540   3.860077
H   -1.757959    1.550419   1.933042
O    2.272404   -1.716302   2.825081
H    3.246727   -1.674453   2.772183
