 14
Energy: -19690.43989015.7 eV PBE+vdW (tier 2 basis)
N    1.196658   -2.047930   1.145063
C    0.337567   -0.905201   1.414043
C    1.215584    0.360604   1.546700
O    0.613265    1.476614   1.998249
H    2.127474   -1.701549   0.898952
H    0.844845   -2.615371   0.378230
H   -0.363433   -0.693053   0.581841
C   -0.507853   -1.221214   2.672422
S   -1.851986   -0.037222   3.071265
H    0.133163   -1.239516   3.563819
H   -0.938082   -2.222579   2.562475
H   -2.567271   -0.218776   1.935113
O    2.386652    0.364224   1.235515
H   -0.318585    1.267969   2.278312
