 14
Energy: -19690.31797515.7 eV PBE+vdW (tier 2 basis)
N   -0.429129   -0.006894   0.295765
C   -0.130579   -0.332494   1.687088
C    1.212799    0.303741   2.039351
O    1.703393    1.234976   1.433343
H   -1.428531    0.125238   0.155361
H    0.049737    0.858270   0.039798
H   -0.846107    0.111612   2.409889
C   -0.169476   -1.867727   1.883997
S   -0.474949   -2.457044   3.588678
H    0.777952   -2.321085   1.567854
H   -0.946375   -2.274173   1.227904
H   -1.823670   -2.371607   3.535543
O    1.804095   -0.263721   3.117887
H    2.630842    0.235908   3.265544
