 14
Energy: -19690.40929815.7 eV PBE+vdW (tier 2 basis)
N    0.487943   -0.809723   4.052165
C    0.520419   -0.877020   2.593869
C    1.911214   -0.533748   2.061331
O    2.147998    0.110722   1.062648
H   -0.448239   -1.072400   4.367438
H    1.154791   -1.461793   4.462267
H    0.320868   -1.896676   2.189483
C   -0.520256    0.070958   1.992722
S   -2.237881   -0.346318   2.458018
H   -0.426558    0.114722   0.903473
H   -0.363493    1.083039   2.388195
H   -2.337686   -1.467288   1.705247
O    2.888256   -1.099706   2.822511
H    3.734625   -0.855769   2.399634
