18
Energy: -566800.394777 eV PBE+vdW (tier 2 basis)
N    0.219690  0.947044  1.838297
C    0.069544  -0.422894  2.108144
C    0.702022  -1.382169  1.029028
O    0.926811  -2.580310  1.228985
H    1.126480  1.387858  1.971623
H    -0.388010  1.410935  1.167341
H    0.667659  -0.664492  3.010250
C    -1.424907  -0.835286  2.325794
C    -1.762217  -1.175329  3.773550
O    -1.192367  -2.124454  4.409699
N    -2.696912  -0.480281  4.391830
H    -1.697774  -1.723501  1.733620
H    -2.069851  -0.024851  1.965680
H    -3.182514  0.295039  3.948903
H    -2.964375  -0.720681  5.347373
O    0.976698  -0.777077  -0.092118
H    1.386483  -1.381561  -0.755120
Hg    0.287980  -3.440755  3.357058
