18
Energy: -566799.686324 eV PBE+vdW (tier 2 basis)
N    -0.151179  0.423469  0.091931
C    -0.051863  -0.317040  1.415261
C    1.363935  -0.184382  2.029840
O    1.776149  -0.974194  2.836778
H    0.146421  1.405002  0.208341
H    -1.134666  0.397027  -0.233845
H    -0.737349  0.216603  2.093369
C    -0.467234  -1.786432  1.307540
C    -1.928303  -1.963923  1.012418
O    -2.533009  -3.140310  0.928917
N    -2.668052  -0.979092  0.645544
H    -0.210874  -2.249365  2.273926
H    0.127646  -2.328934  0.554058
H    0.451397  0.013614  -0.636930
H    -3.687561  -1.093901  0.572659
O    1.975234  0.913502  1.563502
H    2.849354  1.026420  1.997381
Hg    -2.071044  -4.987063  1.914311
