18
Energy: -566799.559464 eV PBE+vdW (tier 2 basis)
N    -0.574550  1.084474  1.280953
C    -0.456602  -0.304652  1.498058
C    0.933336  -0.759085  2.080496
O    1.973047  -0.192533  2.089868
H    -0.851465  1.678025  2.060895
H    -2.901084  -0.743087  -1.292414
H    -1.184795  -0.590037  2.270915
C    -0.719491  -1.131491  0.176924
C    -2.047040  -1.848675  0.205687
O    -2.325307  -2.762074  1.071278
N    -2.989944  -1.536251  -0.659709
H    0.056564  -1.894578  0.015812
H    -0.658397  -0.451675  -0.680197
H    0.041295  1.542881  0.609711
H    -3.870552  -2.055132  -0.672688
O    0.808641  -2.056971  2.645693
H    1.689947  -2.290490  3.026174
Hg    -0.873604  -3.870647  2.343542
