18
Energy: -566799.553628 eV PBE+vdW (tier 2 basis)
N    4.453265  1.754138  -0.403415
C    4.288182  1.753568  1.011066
C    4.910094  0.473275  1.601473
O    5.449917  -0.393978  0.986474
H    1.831488  1.143243  -0.900299
H    4.729834  2.623033  -0.858409
H    4.793472  2.620286  1.470125
C    2.769460  1.889864  1.436567
C    1.921974  0.694171  1.086352
O    1.467348  -0.134492  1.964364
N    1.614703  0.459849  -0.174660
H    2.378955  2.783508  0.932241
H    2.716066  2.077924  2.516433
H    4.821656  0.909477  -0.842771
H    1.052270  -0.353324  -0.433000
O    4.757163  0.440408  2.995804
H    5.432501  -0.195357  3.332375
Hg    2.456650  -0.461593  3.897280
