18
Energy: -566800.208969 eV PBE+vdW (tier 2 basis)
N    0.525023  0.626657  0.847536
C    -0.518743  -0.262886  1.222771
C    -0.003850  -1.068719  2.469858
O    0.426164  -2.223714  2.515102
H    0.605581  1.540606  1.286756
H    -3.494166  -0.479337  -0.546659
H    -1.357321  0.332234  1.617434
C    -0.978764  -1.072635  -0.014186
C    -2.227509  -1.922877  0.175595
O    -2.190290  -3.116798  0.616935
N    -3.402269  -1.403300  -0.132245
H    -0.176327  -1.731045  -0.385394
H    -1.156779  -0.333948  -0.806763
H    1.338490  0.298522  0.332444
H    -4.252607  -1.957191  -0.022430
O    0.005602  -0.276235  3.517390
H    0.413693  -0.705945  4.303372
Hg    -0.233928  -4.095389  1.154482
