18
Energy: -566800.40816 eV PBE+vdW (tier 2 basis)
N    2.252184  -5.478159  -0.931300
C    1.742251  -5.331788  0.491636
C    2.550793  -6.302304  1.378388
O    2.339604  -6.132286  2.623312
H    2.483918  -6.473474  -1.108944
H    1.579702  -5.139989  -1.635177
H    1.885432  -4.288021  0.792372
C    0.258788  -5.724738  0.669991
C    -0.154642  -7.220408  0.729181
O    0.334160  -8.096675  1.487520
N    -1.178532  -7.552595  -0.055088
H    -0.341104  -5.214836  -0.097074
H    -0.047784  -5.294209  1.635988
H    -1.668863  -6.879853  -0.636758
H    -1.575494  -8.489407  0.013551
O    3.085654  -7.272646  0.812481
H    3.127234  -4.946168  -1.064077
Hg    2.267701  -8.347445  2.982999
