18
Energy: -566799.994071 eV PBE+vdW (tier 2 basis)
N    2.162800  -5.183320  -0.760294
C    1.959584  -5.509221  0.640897
C    3.099904  -6.522861  0.989903
O    3.235052  -7.246778  2.022949
H    1.636111  -5.739707  -1.434420
H    2.092180  -4.190969  -0.984980
H    2.283567  -4.622840  1.217848
C    0.494765  -5.739362  1.148282
C    -0.267946  -6.985989  0.750186
O    -0.133421  -8.117390  1.353280
N    -1.149460  -6.933074  -0.229700
H    -0.068836  -4.853717  0.823861
H    0.480213  -5.686390  2.248590
H    -1.391587  -6.061765  -0.695149
H    -1.697182  -7.761227  -0.471873
O    4.069643  -6.484013  0.157075
H    3.709311  -5.846050  -0.583510
Hg    1.484280  -8.275880  2.798583
