18
Energy: -566800.487706 eV PBE+vdW (tier 2 basis)
N    -0.973663  -0.383372  0.372077
C    -0.207373  -0.112823  1.645703
C    1.303815  0.013165  1.355291
O    2.134815  -0.374032  2.135360
H    -0.599981  0.197638  -0.393269
H    -1.980205  -0.195008  0.466670
H    -0.537859  0.884084  1.989176
C    -0.480872  -1.114780  2.794398
C    0.306553  -2.414432  2.800474
O    0.387421  -3.218125  1.781720
N    0.886064  -2.814295  3.907249
H    -1.552598  -1.377729  2.825597
H    -0.290364  -0.582587  3.734301
H    0.961190  -2.214411  4.726169
H    1.360499  -3.718509  3.940601
O    1.503048  0.607985  0.168264
H    2.461323  0.764766  0.019120
Hg    -0.621325  -2.566205  -0.009569
