18
Energy: -566800.407004 eV PBE+vdW (tier 2 basis)
N    -0.063532  -0.092910  -0.247441
C    0.234048  0.265403  1.196082
C    1.697652  -0.097803  1.502001
O    2.079597  -1.210584  1.058347
H    0.351712  -1.017801  -0.464801
H    -1.075772  -0.125998  -0.446016
H    0.040927  1.334970  1.330301
C    -0.611167  -0.623399  2.148164
C    -0.141745  -0.734734  3.622815
O    0.895021  -1.346776  3.997756
N    -0.971849  -0.245003  4.536839
H    -0.605407  -1.658200  1.771339
H    -1.646401  -0.257614  2.132988
H    -1.876843  0.154847  4.305846
H    -0.749790  -0.361864  5.525505
O    2.245326  0.614114  2.388462
H    0.354106  0.592826  -0.897365
Hg    3.177117  -1.335474  3.236178
