18
Energy: -566800.771006 eV PBE+vdW (tier 2 basis)
N    -0.100091  0.328713  0.015829
C    -0.008756  0.040421  1.488942
C    1.356177  -0.683335  1.770704
O    2.270538  -0.515207  0.923281
H    -0.805600  1.049472  -0.189345
H    0.805674  0.616455  -0.381769
H    0.092583  0.984358  2.047456
C    -1.239618  -0.737403  1.948118
C    -1.508924  -1.989520  1.094634
O    -1.054537  -2.031856  -0.071355
N    -2.241492  -2.962588  1.620869
H    -2.128008  -0.089950  1.848328
H    -1.133839  -0.985552  3.011838
H    -2.587671  -2.934646  2.575220
H    -2.483377  -3.771395  1.049498
O    1.449816  -1.323313  2.849816
H    -0.433133  -0.623315  -0.395878
Hg    3.715260  -1.744339  2.380814
