18
Energy: -566800.667596 eV PBE+vdW (tier 2 basis)
N    1.632876  -0.653213  0.453893
C    0.636068  -0.579091  1.546437
C    0.892293  -1.715841  2.577612
O    1.362921  -2.810974  2.253561
H    2.571583  -0.369695  0.757584
H    1.372494  -0.075499  -0.351921
H    0.771523  0.378055  2.078459
C    -0.827359  -0.600257  1.017241
C    -1.391349  -1.855523  0.344888
O    -0.712680  -2.722972  -0.297224
N    -2.705978  -1.998514  0.376633
H    -0.932702  0.222352  0.288879
H    -1.486072  -0.326012  1.852717
H    -3.326641  -1.327638  0.822443
H    -3.137390  -2.780965  -0.116794
O    0.558776  -1.527826  3.828012
H    0.278877  -0.616708  4.051469
Hg    1.504759  -2.935683  -0.084891
