18
Energy: -566800.466741 eV PBE+vdW (tier 2 basis)
N    -0.469279  0.667746  -0.045805
C    0.010410  0.065400  1.253121
C    1.516268  -0.236334  1.235888
O    2.133397  -0.458343  2.235978
H    0.104001  1.475043  -0.323049
H    -1.445757  0.986598  0.017605
H    -0.137487  0.826329  2.037452
C    -0.807526  -1.185568  1.685306
C    -0.440619  -2.535988  1.084875
O    -0.200105  -2.742649  -0.165408
N    -0.403717  -3.582143  1.882681
H    -1.878442  -1.016717  1.478698
H    -0.725811  -1.249753  2.777559
H    -0.538134  -3.506585  2.888796
H    -0.230177  -4.513034  1.499306
O    2.024462  -0.261158  -0.036097
H    2.989594  -0.450021  0.002475
Hg    -0.163203  -1.018698  -1.509740
