26
Energy: -608771.780652 eV PBE+vdW (tier 2 basis)
C    0.868118  0.937113  0.151826
C    0.476925  0.193728  1.383153
O    1.399511  -0.258459  2.146151
H    1.466652  0.266756  -0.482851
H    1.520094  1.777918  0.424782
H    0.014742  1.307864  -0.425222
N    -0.823089  0.010318  1.634849
C    -1.482926  -0.800457  2.683985
C    -1.304928  -0.172735  4.080252
O    -0.202275  -0.279379  4.732411
H    -1.454102  0.425577  0.952848
H    -2.552723  -0.731639  2.448520
C    -1.109609  -2.289933  2.607254
C    -1.862803  -3.073749  3.675014
O    -1.761155  -4.387681  3.477188
O    -2.459260  -2.528078  4.583839
H    -0.031473  -2.477679  2.719945
H    -1.361360  -2.677093  1.610219
N    -2.298236  0.529335  4.577789
C    -2.310821  1.160805  5.899423
H    -3.184615  0.504030  4.077758
H    -2.992363  2.016083  5.870097
H    -1.304994  1.497134  6.162016
H    -2.663852  0.438037  6.647795
H    -2.263008  -4.861131  4.174211
Pb    1.923549  -0.687689  4.267745
