26
Energy: -608771.488293 eV PBE+vdW (tier 2 basis)
C    -0.055665  0.127186  0.082437
C    0.048182  0.056491  1.565848
O    1.201337  -0.125172  2.098910
H    0.355193  -0.791416  -0.358269
H    0.573068  0.956782  -0.273086
H    -1.081744  0.276641  -0.268080
N    -1.053675  0.205165  2.301497
C    -1.095695  0.323297  3.762054
C    -0.915424  -1.064019  4.430667
O    0.286536  -1.402244  4.755240
H    -1.945419  0.394403  1.824477
H    -0.179273  0.851225  4.066028
C    -2.253028  1.223214  4.259467
C    -3.658651  1.133206  3.670251
O    -3.636047  1.023417  2.298331
O    -4.666260  1.209095  4.313729
H    -1.936502  2.264661  4.087628
H    -2.354011  1.112849  5.345624
N    -1.880931  -1.916670  4.697528
C    -3.325619  -1.849576  4.445790
H    -1.550506  -2.765538  5.162325
H    -3.830829  -1.240537  5.204933
H    -3.715301  -2.870205  4.499685
H    -3.527803  -1.460519  3.443561
H    -4.560941  1.072674  1.975358
Pb    2.290007  -0.945411  3.860071
