26
Energy: -608772.477435 eV PBE+vdW (tier 2 basis)
C    -0.784931  0.131405  -0.263826
C    -0.616166  -0.174522  1.188059
O    0.397242  -0.827546  1.575365
H    -1.706648  0.673580  -0.498458
H    -0.771283  -0.815276  -0.822637
H    0.079452  0.713571  -0.611518
N    -1.578640  0.242631  2.031329
C    -1.789218  -0.016403  3.466542
C    -0.837075  0.794314  4.363033
O    0.408667  0.881431  4.126441
H    -2.330614  0.764797  1.589059
H    -2.787528  0.405259  3.638547
C    -1.978614  -1.502682  3.863317
C    -0.837401  -2.458812  4.139958
O    -1.306696  -3.669903  4.342339
O    0.374417  -2.207197  4.238838
H    -2.626961  -1.979826  3.113375
H    -2.580198  -1.527073  4.787504
N    -1.345146  1.444370  5.399863
C    -2.745453  1.566290  5.827922
H    -0.650669  1.955157  5.947749
H    -3.170734  0.592248  6.098277
H    -3.356973  2.050113  5.055589
H    -2.767364  2.200185  6.718612
H    -0.585000  -4.297292  4.566013
Pb    1.880536  -0.655819  3.291708
