26
Energy: -608771.916209 eV PBE+vdW (tier 2 basis)
C    -2.075749  -2.973667  -0.000217
C    -1.627515  -2.014071  1.045504
O    -0.430634  -1.594050  1.054542
H    -3.135491  -3.236937  0.082443
H    -1.466110  -3.885793  0.065538
H    -1.882825  -2.536271  -0.989737
N    -2.526488  -1.594670  1.977566
C    -2.079842  -0.631275  2.961152
C    -1.388669  -1.284366  4.172526
O    -0.112240  -1.275338  4.205018
H    -3.478922  -1.948774  1.940735
H    -1.247912  -0.189639  2.415027
C    -2.873241  0.641888  3.243854
C    -1.850779  1.786559  3.342125
O    -2.397384  2.900397  3.767544
O    -0.651260  1.684836  3.040087
H    -3.488197  0.633727  4.153006
H    -3.549974  0.881171  2.408218
N    -2.090056  -1.845701  5.136713
C    -1.495434  -2.518840  6.302224
H    -3.104842  -1.825059  5.071792
H    -0.908389  -3.385880  5.977186
H    -2.304833  -2.848503  6.957860
H    -0.842960  -1.824005  6.843022
H    -1.741448  3.631170  3.794846
Pb    1.009194  -0.289907  2.448424
