26
Energy: -608771.649368 eV PBE+vdW (tier 2 basis)
C    -1.011599  -2.739212  0.307195
C    -0.569322  -1.465894  0.940316
O    0.623165  -1.089526  0.886230
H    -0.507216  -2.828750  -0.664561
H    -2.093804  -2.813337  0.160153
H    -0.663547  -3.589915  0.913881
N    -1.497489  -0.650942  1.580031
C    -2.432180  -1.221859  2.568535
C    -3.827565  -0.640509  2.334552
O    -4.063245  -0.014166  1.215135
H    -1.051124  0.210955  1.913368
H    -2.508824  -2.300641  2.365799
C    -1.883816  -1.028364  4.024894
C    -0.365331  -1.059929  3.906202
O    0.249175  0.059768  3.826441
O    0.231081  -2.163670  3.699999
H    -2.231297  -1.837226  4.679606
H    -2.185643  -0.058141  4.437344
N    -4.798058  -0.779773  3.192782
C    -6.182734  -0.304035  3.026645
H    -4.591537  -1.281805  4.055510
H    -6.848020  -1.171682  2.937205
H    -6.256450  0.317536  2.132182
H    -6.459148  0.276703  3.913829
H    -3.226436  0.030267  0.692546
Pb    2.097964  -0.969853  2.788180
