26
Energy: -608771.562379 eV PBE+vdW (tier 2 basis)
C    0.023229  0.765288  0.959659
C    0.311820  0.059559  2.234421
O    1.504021  -0.168526  2.608859
H    0.621205  1.689021  0.946061
H    -1.031364  1.024952  0.828434
H    0.371320  0.160206  0.110384
N    -0.693637  -0.344041  3.060428
C    -1.949314  -1.000105  2.622169
C    -2.641002  -1.501518  3.882929
O    -2.064024  -2.442186  4.578500
H    -0.326368  -0.693892  3.945740
H    -2.587302  -0.281802  2.098418
C    -1.663022  -2.218388  1.664310
C    -0.264927  -2.730074  1.965873
O    0.036347  -3.054988  3.180239
O    0.636003  -2.646670  1.083546
H    -1.705032  -1.889717  0.621074
H    -2.413352  -3.011504  1.793319
N    -3.793429  -1.062958  4.314942
C    -4.658853  0.004982  3.803357
H    -4.136369  -1.548257  5.150835
H    -4.924827  0.661697  4.639732
H    -5.573815  -0.436157  3.389063
H    -4.151207  0.597195  3.039117
H    -1.214001  -2.797950  4.118603
Pb    2.380509  -2.351235  2.645854
