26
Energy: -608771.860197 eV PBE+vdW (tier 2 basis)
C    -0.654381  0.765069  -0.533113
C    -0.471199  1.428369  0.787877
O    0.158879  2.543377  0.848643
H    0.320993  0.622897  -1.016994
H    -1.229854  1.444739  -1.180206
H    -1.177799  -0.194586  -0.469922
N    -0.993125  0.858655  1.876650
C    -1.144836  1.445425  3.225234
C    0.150477  1.207161  4.034191
O    1.267219  1.623415  3.527700
H    -1.459797  -0.035342  1.730364
H    -1.226693  2.537644  3.093761
C    -2.488001  0.898676  3.764591
C    -2.928092  1.376061  5.145737
O    -4.059205  2.067281  5.095363
O    -2.318479  1.107018  6.171057
H    -2.442872  -0.201071  3.823311
H    -3.264674  1.163043  3.036950
N    0.112506  0.611729  5.194709
C    1.269193  0.335487  6.046571
H    -0.835992  0.509405  5.639011
H    1.209872  -0.705915  6.383982
H    1.231436  0.988648  6.928382
H    2.197958  0.498202  5.496832
H    -4.343744  2.299167  6.006195
Pb    1.910421  3.175393  2.077509
