26
Energy: -608771.877832 eV PBE+vdW (tier 2 basis)
C    0.121488  -1.341028  -0.061366
C    -0.142564  -0.547029  1.169770
O    0.090564  0.710927  1.163921
H    -0.100716  -2.406893  0.054440
H    1.170814  -1.214201  -0.360686
H    -0.491160  -0.931208  -0.878099
N    -0.645128  -1.159580  2.248964
C    -1.094573  -0.480934  3.470482
C    0.109803  -0.174983  4.386411
O    0.816225  0.872533  4.160947
H    -0.810098  -2.161619  2.172367
H    -1.479285  0.505174  3.173241
C    -2.260694  -1.216193  4.133107
C    -2.801098  -0.339188  5.261888
O    -3.846319  -0.902567  5.861500
O    -2.300900  0.735929  5.537466
H    -2.002606  -2.217406  4.514433
H    -3.061281  -1.382942  3.397130
N    0.443941  -1.006764  5.347293
C    1.567928  -0.835937  6.274337
H    -0.169622  -1.800436  5.518506
H    2.313462  -0.173251  5.830132
H    2.010675  -1.817110  6.473667
H    1.204808  -0.403005  7.215748
H    -4.179964  -0.308062  6.566425
Pb    0.783300  2.370775  2.504978
