26
Energy: -608771.644957 eV PBE+vdW (tier 2 basis)
C    0.660943  -0.382554  -0.095366
C    0.133568  -0.254808  1.290976
O    0.905164  0.070852  2.240661
H    1.135688  0.565879  -0.383027
H    -0.110470  -0.641256  -0.828344
H    1.450481  -1.146956  -0.109485
N    -1.192994  -0.488293  1.508499
C    -1.682798  -0.333220  2.861034
C    -1.494173  -1.589121  3.730359
O    -0.544173  -1.561002  4.585669
H    -1.779105  -0.768723  0.727067
H    -0.903472  0.319091  3.244140
C    -2.889299  0.553724  3.184673
C    -2.480902  1.463985  4.367621
O    -3.391140  2.235578  4.913951
O    -1.329686  1.514152  4.820677
H    -3.804514  0.006003  3.447759
H    -3.133954  1.204645  2.330066
N    -2.247400  -2.665862  3.613223
C    -3.354445  -2.915949  2.690861
H    -1.993303  -3.433665  4.239674
H    -3.089315  -3.731626  2.006558
H    -3.587292  -2.021420  2.106586
H    -4.245839  -3.207934  3.258973
H    -4.274428  2.161171  4.501047
Pb    0.881858  0.259306  4.646148
