26
Energy: -608771.674832 eV PBE+vdW (tier 2 basis)
C    -0.608126  -3.652776  0.861817
C    -0.491061  -2.178978  1.003143
O    0.609918  -1.579448  0.794975
H    -1.634313  -4.023429  0.941523
H    0.033583  -4.152449  1.601229
H    -0.209063  -3.925343  -0.127162
N    -1.569107  -1.414743  1.332650
C    -2.565536  -1.741927  2.382320
C    -3.415136  -0.493001  2.586980
O    -2.861492  0.581309  3.066136
H    -1.354116  -0.420325  1.257009
H    -3.203291  -2.571713  2.053214
C    -1.865729  -2.132939  3.736999
C    -0.505960  -1.456559  3.769224
O    -0.434878  -0.178760  3.584716
O    0.543324  -2.160957  3.775516
H    -1.725806  -3.217437  3.788070
H    -2.479041  -1.836488  4.599965
N    -4.690107  -0.489444  2.303854
C    -5.613571  0.638233  2.497088
H    -5.081124  -1.339595  1.899547
H    -6.501033  0.273336  3.026391
H    -5.912101  1.028456  1.515891
H    -5.122491  1.422153  3.077260
H    -1.880826  0.412517  3.337386
Pb    1.817082  -0.595693  2.555256
