26
Energy: -608771.605454 eV PBE+vdW (tier 2 basis)
C    -0.255022  1.505798  -0.362105
C    0.096843  0.851084  0.920294
O    1.294218  0.803061  1.336239
H    0.203027  0.903372  -1.165744
H    0.198754  2.502163  -0.428878
H    -1.332253  1.546668  -0.550980
N    -0.857481  0.242075  1.688131
C    -2.083858  0.891602  2.151152
C    -1.814431  2.381795  2.480754
O    -0.645262  2.776365  2.797149
H    -0.435383  -0.376968  2.378364
H    -2.863184  0.829126  1.379494
C    -2.607059  0.134335  3.394980
C    -1.640786  0.023794  4.573120
O    -2.090276  -0.482237  5.699014
O    -0.443625  0.345819  4.536118
H    -2.881045  -0.891810  3.094711
H    -3.539921  0.600606  3.744409
N    -2.802202  3.261161  2.425532
C    -4.215303  3.077572  2.079983
H    -2.524703  4.209998  2.686146
H    -4.828338  3.029287  2.989553
H    -4.369352  2.171656  1.487058
H    -4.541638  3.936978  1.484653
H    -3.031828  -0.746687  5.676620
Pb    1.301107  1.706389  3.513236
