26
Energy: -608772.30076 eV PBE+vdW (tier 2 basis)
C    -0.794000  0.153113  0.205268
C    -0.522307  0.300473  1.666742
O    0.501164  0.933014  2.051869
H    0.041077  -0.391992  -0.256789
H    -0.809564  1.151429  -0.253434
H    -1.731688  -0.364860  -0.021391
N    -1.414308  -0.238871  2.524892
C    -1.443666  -0.196734  3.996085
C    -0.907581  1.127906  4.576606
O    0.276910  1.227886  5.030369
H    -2.209384  -0.701601  2.090430
H    -2.514141  -0.207903  4.246504
C    -0.893393  -1.467010  4.693864
C    0.475811  -2.008704  4.332101
O    0.729513  -3.271672  4.595940
O    1.394695  -1.356415  3.817027
H    -1.627742  -2.270469  4.532686
H    -0.886055  -1.293089  5.784086
N    -1.738088  2.154648  4.663861
C    -3.153557  2.234344  4.281525
H    -1.329770  2.984626  5.097498
H    -3.460367  3.281883  4.347854
H    -3.782033  1.651337  4.968033
H    -3.303778  1.901682  3.248478
H    -0.023567  -3.759777  4.983671
Pb    2.107272  0.862532  3.690439
