26
Energy: -608771.446606 eV PBE+vdW (tier 2 basis)
C    0.951969  -0.612969  0.798561
C    -0.099541  0.443171  0.665627
O    -0.039565  1.355754  -0.174874
H    0.721382  -1.382178  1.543054
H    1.899477  -0.125940  1.069202
H    1.109589  -1.082620  -0.180665
N    -1.172070  0.374546  1.525321
C    -2.183483  1.418141  1.670351
C    -3.125810  1.569282  0.452016
O    -4.411042  1.629807  0.650104
H    -1.230219  -0.412620  2.163756
H    -2.829798  1.081563  2.491173
C    -1.530449  2.765857  2.086088
C    -2.458260  3.836786  2.591355
O    -1.970885  5.000012  2.939598
O    -3.695495  3.699684  2.734159
H    -0.929097  3.171233  1.256144
H    -0.809596  2.553248  2.894163
N    -2.611679  1.623789  -0.744494
C    -3.347191  1.726021  -2.002043
H    -1.552594  1.581231  -0.750201
H    -2.973042  0.955891  -2.686761
H    -3.161528  2.708728  -2.455104
H    -4.417236  1.585081  -1.834382
H    -1.000097  5.072550  2.832845
Pb    -5.655991  2.732200  2.073180
