26
Energy: -608771.837375 eV PBE+vdW (tier 2 basis)
C    -0.746823  -0.151078  0.172476
C    -0.436266  0.170294  1.591488
O    0.177824  1.261178  1.862279
H    0.159068  -0.056980  -0.439668
H    -1.460824  0.602310  -0.195610
H    -1.183983  -1.146287  0.040263
N    -0.827563  -0.669994  2.553233
C    -0.842157  -0.385924  3.997556
C    0.527398  -0.712182  4.610285
O    1.490927  0.121173  4.448693
H    -1.317902  -1.508558  2.246426
H    -0.980481  0.703909  4.094837
C    -2.071443  -1.020295  4.647148
C    -3.318104  -0.216610  4.245173
O    -4.427226  -0.852004  4.623024
O    -3.253330  0.852472  3.675780
H    -1.995212  -0.972592  5.744143
H    -2.212582  -2.079885  4.383011
N    0.707156  -1.826945  5.284867
C    1.958398  -2.268444  5.910043
H    -0.098194  -2.441424  5.393742
H    1.769974  -2.485962  6.967816
H    2.709601  -1.481867  5.818727
H    2.310422  -3.181173  5.413362
H    -5.208619  -0.305568  4.394354
Pb    1.675944  2.052434  3.299551
