26
Energy: -608771.597625 eV PBE+vdW (tier 2 basis)
C    0.935429  -1.244165  0.127123
C    -0.033349  -0.132897  0.335359
O    0.006668  0.884818  -0.422271
H    0.919594  -1.999596  0.916964
H    1.936860  -0.785834  0.113923
H    0.797548  -1.709391  -0.857865
N    -0.911363  -0.129728  1.377351
C    -1.877079  -1.175746  1.798419
C    -1.614112  -2.558850  1.211705
O    -1.805830  -2.800689  -0.047397
H    -1.302043  0.803165  1.531155
H    -1.862691  -1.252654  2.893775
C    -3.305578  -0.681143  1.346135
C    -3.116717  0.056998  0.031706
O    -2.660206  -0.582768  -0.993376
O    -3.215109  1.318250  0.003449
H    -3.704831  0.012285  2.094600
H    -4.007051  -1.521011  1.249145
N    -1.262320  -3.539351  2.004948
C    -1.072179  -4.941612  1.609664
H    -1.110202  -3.313347  2.987346
H    -1.646918  -5.576800  2.293467
H    -0.008295  -5.198503  1.690583
H    -1.415077  -5.085604  0.583083
H    -2.172530  -1.969708  -0.546960
Pb    -1.746440  1.597388  -1.816705
