26
Energy: -608771.263361 eV PBE+vdW (tier 2 basis)
C    -0.918846  -1.091187  -0.233141
C    -0.474973  -0.260528  0.933654
O    0.140536  0.792366  0.850754
H    -1.799493  -0.612564  -0.685909
H    -1.179848  -2.121074  0.035567
H    -0.128899  -1.091718  -0.992236
N    -0.805699  -0.751602  2.209113
C    -0.523115  0.090888  3.341833
C    0.277244  -0.663772  4.395100
O    -0.201701  -0.909497  5.578816
H    -1.387326  -1.579172  2.304969
H    0.127329  0.875956  2.894123
C    -1.812740  0.790929  3.873381
C    -1.547583  1.961495  4.775228
O    -1.468829  3.109460  4.162263
O    -1.390122  1.885094  6.024848
H    -2.468830  0.073723  4.386563
H    -2.340916  1.161495  2.987228
N    1.478121  -1.124791  4.113352
C    2.247214  -0.997830  2.869863
H    1.908623  -1.677554  4.856723
H    2.064359  -1.868697  2.227074
H    3.308897  -0.964568  3.133722
H    1.981096  -0.084124  2.330345
H    -1.283866  3.849114  4.784082
Pb    -1.165629  0.003157  7.327685
