26
Energy: -608771.390928 eV PBE+vdW (tier 2 basis)
C    1.029605  0.111433  0.355676
C    0.317112  -0.541869  1.488586
O    0.822493  -1.626990  1.986374
H    2.061918  0.343494  0.650979
H    0.531998  1.024326  0.013955
H    1.090967  -0.602474  -0.478903
N    -0.810798  -0.018938  1.929278
C    -1.803893  -0.543911  2.863564
C    -3.158902  -0.080855  2.202011
O    -3.098927  0.899903  1.459710
H    -1.260940  0.756711  1.395304
H    -1.730385  -1.637756  2.931473
C    -1.714766  0.126454  4.251027
C    -0.499570  -0.188715  5.084925
O    -0.145610  0.612821  6.056444
O    0.186673  -1.223459  4.941234
H    -2.585841  -0.179919  4.858055
H    -1.807975  1.217013  4.130445
N    -4.264227  -0.752783  2.542832
C    -5.599338  -0.401131  2.045776
H    -4.178863  -1.596796  3.100698
H    -5.547438  0.585451  1.578296
H    -6.307035  -0.377045  2.881500
H    -5.935378  -1.136094  1.304261
H    -0.717206  1.403123  6.144957
Pb    1.383313  -2.753161  3.756154
