26
Energy: -608771.723451 eV PBE+vdW (tier 2 basis)
C    -1.079047  -0.484393  -0.217506
C    -0.710910  -0.754840  1.205140
O    0.330245  -1.200215  1.620770
H    -0.871705  0.575713  -0.438848
H    -2.141407  -0.659188  -0.434613
H    -0.450621  -1.089114  -0.878971
N    -1.759274  -0.455178  2.202186
C    -1.208835  -0.164684  3.553849
C    -0.689015  -1.471235  4.176386
O    -1.344116  -2.557590  4.023228
H    -2.401226  0.274235  1.875477
H    -0.349486  0.513862  3.439654
C    -2.227693  0.563791  4.462342
C    -3.586945  -0.070360  4.704376
O    -4.390414  0.486989  5.577365
O    -4.024707  -1.070065  4.109771
H    -2.414482  1.571000  4.050139
H    -1.751464  0.740940  5.439518
N    0.396929  -1.423368  4.917985
C    1.000686  -2.571657  5.603716
H    0.922499  -0.551452  4.933741
H    1.364736  -2.245782  6.583513
H    1.843197  -2.951016  5.010970
H    0.253114  -3.358466  5.726171
H    -4.022878  1.276274  6.023677
Pb    -3.117523  -2.640869  2.642827
