26
Energy: -608771.613061 eV PBE+vdW (tier 2 basis)
C    -0.782909  -1.125959  -0.170874
C    -0.539745  -0.357516  1.082060
O    0.556236  0.218249  1.289820
H    -1.841127  -1.307441  -0.384236
H    -0.248292  -2.087498  -0.120208
H    -0.335610  -0.568436  -1.004529
N    -1.539286  -0.243400  2.030985
C    -2.292366  -1.424916  2.472540
C    -3.780544  -1.135779  2.600913
O    -4.604083  -2.025085  3.099001
H    -1.236166  0.348625  2.811535
H    -2.192781  -2.197627  1.694773
C    -1.677991  -1.992557  3.807970
C    -0.190797  -1.664375  3.748077
O    0.210616  -0.606305  4.344223
O    0.569266  -2.322374  2.970151
H    -1.822151  -3.078542  3.875083
H    -2.114808  -1.503617  4.687232
N    -4.279545  -0.003695  2.199279
C    -5.692373  0.401299  2.239628
H    -3.603486  0.647272  1.793698
H    -6.276134  -0.332985  2.798394
H    -6.069598  0.476491  1.212105
H    -5.758412  1.382984  2.722219
H    -4.172532  -2.850047  3.391671
Pb    2.121617  -0.493764  2.962490
