26
Energy: -608771.680669 eV PBE+vdW (tier 2 basis)
C    -0.175896  -0.202021  -0.018807
C    -0.080597  -0.129570  1.466304
O    1.057440  -0.342264  2.017838
H    -1.180519  0.007410  -0.399769
H    0.129868  -1.208382  -0.340388
H    0.539505  0.503182  -0.463744
N    -1.182861  0.141313  2.166295
C    -1.413559  0.089026  3.625737
C    -0.639567  1.171416  4.383957
O    0.604208  1.039273  4.682179
H    -2.043247  0.187707  1.622273
H    -2.480112  0.322370  3.719981
C    -1.241644  -1.315588  4.220053
C    -2.343772  -2.225904  3.662257
O    -2.219990  -3.463801  4.143190
O    -3.194027  -1.833209  2.891044
H    -1.329650  -1.282123  5.316256
H    -0.269316  -1.777458  3.996297
N    -1.269603  2.253255  4.795430
C    -2.681771  2.628788  4.618602
H    -0.687131  2.904563  5.326099
H    -2.965781  2.607934  3.560637
H    -2.799852  3.652426  4.984287
H    -3.338070  1.973651  5.204906
H    -2.946172  -4.021196  3.791477
Pb    2.337116  -0.052798  3.801610
