15
Energy: -609831.6460641  eV PBE+vdW (tier 2 basis)
N    0.443880  -0.495069  0.142202
C    0.303104  0.089010  1.504033
C    1.542788  -0.207143  2.331478
O    2.339852  -1.132301  2.019174
H    -0.531565  -0.826040  -0.096404
H    0.645733  0.247855  -0.538555
H    0.166724  1.178399  1.422955
C    -0.944260  -0.520282  2.250712
S    -2.381736  -0.627981  1.125596
H    -1.193456  0.129090  3.098557
H    -0.717215  -1.516558  2.649654
H    -2.596266  -1.956003  1.279886
O    1.797232  0.430067  3.432548
H    1.178543  1.159735  3.647262
Pb    2.232149  -2.187373  0.027094
