15
Energy: -609832.1445025  eV PBE+vdW (tier 2 basis)
N    2.637557  -6.089320  0.570424
C    2.858045  -7.389534  1.322010
C    4.362326  -7.706127  1.049207
O    4.903529  -8.664081  1.759415
H    1.816682  -6.082118  -0.049568
H    2.567624  -5.277105  1.198299
H    2.682552  -7.204930  2.388853
C    1.899265  -8.468435  0.776384
S    1.882634  -10.110093  1.601315
H    2.126625  -8.706291  -0.273424
H    0.855721  -8.125593  0.823315
H    1.362415  -9.727215  2.798841
O    4.937587  -7.049342  0.201571
H    3.533294  -6.003166  0.000464
Pb    4.611144  -10.640656  2.539896
