15
Energy: -609832.3188867  eV PBE+vdW (tier 2 basis)
N    -0.131434  -0.033149  -0.151035
C    -0.075284  0.171624  1.351819
C    1.370843  0.150316  1.829733
O    2.107809  -0.798863  1.405214
H    -1.075695  -0.292401  -0.477934
H    0.139221  0.826565  -0.655394
H    -0.562796  1.124775  1.584750
C    -0.760543  -1.035379  2.058716
S    -0.215138  -1.246356  3.821703
H    -0.515491  -1.964611  1.529645
H    -1.849070  -0.896453  2.083364
H    -0.468419  -2.580011  3.866354
O    1.660909  0.874826  2.826354
H    0.530927  -0.779669  -0.428968
Pb    2.855965  -0.974304  3.685342
