15
Energy: -609832.6080465  eV PBE+vdW (tier 2 basis)
N    -0.083067  0.309133  0.415357
C    -0.189119  -0.592531  1.591243
C    1.226804  -0.812613  2.139954
O    2.193574  -0.855390  1.357440
H    -0.988602  0.381215  -0.063525
H    0.151282  1.264981  0.711975
H    -0.842556  -0.158972  2.367032
C    -0.806764  -1.946488  1.164938
S    0.020965  -2.815059  -0.237575
H    -1.835545  -1.781700  0.814778
H    -0.863497  -2.647611  2.006890
H    0.979519  -3.469407  0.472589
O    1.443682  -1.037136  3.404908
H    0.664901  -0.928597  3.989184
Pb    1.792421  -0.669605  -0.952704
