15
Energy: -609832.1304754  eV PBE+vdW (tier 2 basis)
N    1.020700  -0.145380  0.124686
C    0.888742  0.048605  1.621768
C    2.366674  0.241474  2.094045
O    2.565594  0.411274  3.376656
H    0.759820  -1.084010  -0.205853
H    0.492719  0.545543  -0.424136
H    0.331953  0.983047  1.781856
C    0.166502  -1.140859  2.281472
S    -0.477160  -0.664093  3.947708
H    0.821154  -2.017050  2.368807
H    -0.729890  -1.417787  1.709242
H    -0.779211  -1.917205  4.380327
O    3.239003  0.230739  1.245876
H    2.069638  -0.008264  -0.021214
Pb    1.942762  0.030966  5.399761
