15
Energy: -609831.7315233  eV PBE+vdW (tier 2 basis)
N    -0.135013  1.284037  1.109917
C    0.214140  -0.020875  1.732333
C    1.711805  -0.096152  1.972341
O    2.518566  0.625703  1.326043
H    -0.929507  1.055224  0.452419
H    -0.529638  1.919424  1.814175
H    -0.323911  -0.133229  2.685438
C    -0.194058  -1.213722  0.779004
S    -1.752519  -0.930052  -0.104117
H    -0.229273  -2.144776  1.356436
H    0.558407  -1.349975  -0.011192
H    -2.584954  -1.091385  0.956181
O    2.232778  -0.961600  2.786887
H    1.588528  -1.499355  3.293630
Pb    1.822084  2.354820  0.052408
