17
Energy: -11929.565266 eV PBE+vdW (tier 2 basis)
N    0.509624  -1.363121  0.888041
C    0.730185  -0.004267  1.362877
C    1.532260  -0.073521  2.651367
O    1.457864  -0.973190  3.463509
H    0.346789  -1.978847  1.686752
H    -0.305363  -1.408438  0.276506
H    1.337646  0.547256  0.623599
C    -0.584535  0.832165  1.561654
O    -0.319896  2.213087  1.799919
C    -1.476688  0.351796  2.693672
H    -1.128912  0.713283  0.601537
H    0.326506  2.523912  1.146031
H    -2.417443  0.915274  2.685084
H    -0.992740  0.505348  3.666628
H    -1.711418  -0.714453  2.587364
O    2.334422  1.008589  2.813034
H    2.758696  0.904127  3.687428
