17
Energy: -11929.8189003 eV PBE+vdW (tier 2 basis)
N    -0.639974  0.090064  0.143626
C    -0.090284  0.006031  1.508077
C    1.389321  -0.427269  1.427808
O    1.883707  -0.428134  0.185293
H    1.094249  -0.155174  -0.369709
H    -1.243583  0.901114  0.027854
H    -0.078265  1.017302  1.942464
C    -0.877923  -0.890563  2.500999
O    -0.361575  -0.727798  3.814573
C    -0.921509  -2.364275  2.084403
H    -1.908175  -0.498134  2.533255
H    0.611087  -0.835830  3.733143
H    -1.406381  -2.514370  1.107127
H    -1.499673  -2.928481  2.825554
H    0.087776  -2.795778  2.038823
O    2.049035  -0.733065  2.405840
H    -1.187832  -0.738640  -0.089130
