17
Energy: -11929.6275099 eV PBE+vdW (tier 2 basis)
N    0.207558  0.091832  0.099570
C    -0.120206  -0.113330  1.507965
C    1.092990  -0.016792  2.415697
O    1.118240  -0.406612  3.570561
H    0.848909  0.873896  -0.021293
H    -0.639198  0.303274  -0.427120
H    -0.818538  0.643187  1.925123
C    -0.838552  -1.483862  1.708750
O    -1.425580  -1.560846  3.002708
C    0.050814  -2.683283  1.388909
H    -1.688772  -1.476131  1.007116
H    -0.699222  -1.409727  3.638198
H    0.872292  -2.772836  2.113827
H    0.480499  -2.587163  0.383513
H    -0.542311  -3.604305  1.437554
O    2.160983  0.587079  1.836633
H    2.858097  0.616620  2.521291
