17
Energy: -11929.6377262 eV PBE+vdW (tier 2 basis)
N    0.453472  -0.343996  -0.062614
C    0.220377  -0.117042  1.352286
C    1.497316  -0.166709  2.207982
O    2.613118  -0.387686  1.792402
H    0.773281  -1.306510  -0.187425
H    1.217085  0.249030  -0.387158
H    -0.194887  0.895557  1.492434
C    -0.832050  -1.103279  1.900686
O    -0.239444  -2.407165  1.761092
C    -2.169073  -1.001263  1.177140
H    -0.971884  -0.875755  2.971274
H    -0.920089  -3.069735  1.951589
H    -2.879364  -1.736039  1.584381
H    -2.046010  -1.175829  0.102283
H    -2.611379  -0.005283  1.318313
O    1.241098  0.121280  3.517314
H    2.103433  0.077423  3.974021
