17
Energy: -11929.6257305 eV PBE+vdW (tier 2 basis)
N    -1.255034  -1.164016  2.586131
C    0.185239  -1.244343  2.353446
C    0.952772  -0.027293  2.872193
O    1.693825  -0.015353  3.830942
H    -1.671870  -0.465467  1.969529
H    -1.464569  -0.913891  3.551228
H    0.587917  -2.089655  2.929571
C    0.470780  -1.510153  0.850166
O    -0.181909  -0.552191  0.009301
C    -0.013059  -2.886412  0.420097
H    1.566714  -1.449257  0.707582
H    0.152862  0.327770  0.253659
H    0.515360  -3.673597  0.973074
H    0.177938  -3.024404  -0.650883
H    -1.088673  -2.989990  0.604910
O    0.693204  1.113929  2.146755
H    1.210503  1.825324  2.572299
