17
Energy: -11929.6893662 eV PBE+vdW (tier 2 basis)
N    0.037295  -0.468967  -0.147751
C    -0.002473  -0.134680  1.293873
C    1.437400  -0.223171  1.847573
O    2.160317  0.747491  1.902891
H    -0.714852  0.006986  -0.645524
H    0.909505  -0.144817  -0.565322
H    -0.326711  0.899834  1.489111
C    -0.969819  -1.127489  1.980240
O    -0.553763  -2.465074  1.624053
C    -2.433388  -0.889572  1.629073
H    -0.840842  -1.058500  3.070741
H    -0.418667  -2.405518  0.650856
H    -3.063259  -1.637010  2.126229
H    -2.608631  -0.972213  0.547005
H    -2.756285  0.108152  1.957897
O    1.851225  -1.444637  2.237689
H    1.102701  -2.087367  2.085951
