17
Energy: -11929.5305086 eV PBE+vdW (tier 2 basis)
N    0.809817  -1.054785  0.359322
C    0.876836  0.127763  1.209276
C    1.580292  -0.272406  2.498674
O    1.463830  -1.358113  3.033265
H    0.100889  -0.944325  -0.365151
H    0.570844  -1.871349  0.924313
H    1.480107  0.907917  0.721844
C    -0.507836  0.786561  1.502320
O    -0.241682  2.095094  2.015692
C    -1.424584  -0.016673  2.416926
H    -0.986459  0.872341  0.504917
H    -1.072796  2.460216  2.355606
H    -2.417689  0.453074  2.467445
H    -1.017030  -0.080663  3.434232
H    -1.565427  -1.038606  2.040279
O    2.344795  0.722753  3.005603
H    2.716094  0.377202  3.841437
