17
Energy: -11929.6844703 eV PBE+vdW (tier 2 basis)
N    -0.544461  -0.526799  0.284836
C    -0.107430  -0.153532  1.621818
C    1.396408  0.197126  1.608913
O    2.016593  0.363718  0.581095
H    0.215975  -0.311454  -0.366069
H    -1.360814  0.006128  -0.004247
H    -0.613599  0.764293  1.984055
C    -0.446893  -1.278492  2.641890
O    -0.135982  -0.836376  3.996748
C    0.304160  -2.572302  2.394071
H    -1.530535  -1.462507  2.567562
H    -0.832616  -0.226258  4.287492
H    -0.053313  -3.358725  3.068979
H    1.383250  -2.444069  2.555356
H    0.141989  -2.889516  1.357291
O    1.976950  0.330684  2.816694
H    1.323320  0.038082  3.506516
