17
Energy: -11929.6608406 eV PBE+vdW (tier 2 basis)
N    -0.919596  0.239871  2.287077
C    -0.044257  -0.927238  2.133845
C    1.427022  -0.614077  2.365655
O    2.315700  -1.429707  2.256882
H    -0.499333  0.944617  2.888409
H    -1.819245  -0.022352  2.683250
H    -0.271714  -1.738745  2.848523
C    -0.213369  -1.491267  0.689259
O    -0.075836  -0.417481  -0.232645
C    -1.543230  -2.225316  0.516907
H    0.618851  -2.183226  0.498626
H    -0.565564  0.321718  0.186682
H    -2.397770  -1.565815  0.727488
H    -1.604860  -3.102492  1.177528
H    -1.637873  -2.567849  -0.520604
O    1.655092  0.680271  2.727884
H    2.621980  0.758089  2.842233
