17
Energy: -11929.5937587 eV PBE+vdW (tier 2 basis)
N    1.852290  -1.410749  1.011979
C    0.549114  -0.840082  1.344152
C    0.659310  0.648088  1.621769
O    -0.109547  1.498816  1.228427
H    2.531843  -1.168438  1.734734
H    1.759839  -2.428904  1.022753
H    -0.106587  -0.924004  0.462567
C    -0.174648  -1.565093  2.529509
O    -0.202641  -2.972254  2.249464
C    -1.565978  -1.025630  2.830231
H    0.469224  -1.476254  3.418678
H    -0.943601  -3.138666  1.643273
H    -2.028949  -1.609037  3.635950
H    -2.211821  -1.082893  1.940326
H    -1.536436  0.026865  3.139721
O    1.720445  0.934781  2.432378
H    1.703142  1.902454  2.564089
