17
Energy: -11929.712688 eV PBE+vdW (tier 2 basis)
N    1.550992  -1.390252  0.673867
C    0.516592  -0.380497  0.921822
C    0.589822  0.121377  2.363296
O    0.008258  -0.362696  3.321551
H    2.475246  -1.050881  0.936871
H    1.344258  -2.228572  1.220228
H    0.696341  0.474045  0.252817
C    -0.886569  -0.962529  0.631410
O    -1.132487  -2.118941  1.435903
C    -1.056557  -1.363287  -0.824663
H    -1.622153  -0.172377  0.878676
H    -1.035032  -1.822757  2.362337
H    -0.936658  -0.494171  -1.484992
H    -2.060340  -1.778603  -0.974801
H    -0.314729  -2.119446  -1.106733
O    1.455939  1.161110  2.498346
H    1.492077  1.366476  3.454067
