17
Energy: -11929.6006339 eV PBE+vdW (tier 2 basis)
N    0.070097  -0.749602  -0.185032
C    0.120288  -0.156427  1.147186
C    1.537812  -0.335167  1.663843
O    2.149762  -1.383249  1.628843
H    -0.868215  -0.681106  -0.576627
H    0.358983  -1.728649  -0.158578
H    -0.100168  0.916739  1.057508
C    -0.883055  -0.762122  2.187195
O    -2.210119  -0.738097  1.647991
C    -0.924100  0.008893  3.495591
H    -0.574756  -1.807768  2.373050
H    -2.272563  -1.437670  0.979370
H    -1.652126  -0.447825  4.176590
H    -1.225790  1.050161  3.317913
H    0.055637  0.014503  3.988891
O    2.047589  0.801760  2.207432
H    2.940722  0.568625  2.530834
