17
Energy: -11929.5365476 eV PBE+vdW (tier 2 basis)
N    -1.443468  -0.540254  2.093119
C    -0.085579  -0.951154  2.453785
C    0.733262  0.284788  2.806796
O    1.831374  0.566048  2.367031
H    -1.851284  0.027632  2.834565
H    -2.038663  -1.359249  1.976501
H    -0.041268  -1.585983  3.369566
C    0.622773  -1.768027  1.341666
O    0.889766  -1.011150  0.168174
C    -0.190700  -2.983352  0.919781
H    1.573519  -2.115913  1.789717
H    1.492765  -0.296405  0.439625
H    0.397076  -3.598035  0.228057
H    -1.103702  -2.674400  0.393232
H    -0.463973  -3.603077  1.785133
O    0.097586  1.064530  3.721036
H    0.681516  1.832001  3.879215
