17
Energy: -11929.6076837 eV PBE+vdW (tier 2 basis)
N    -0.184489  -0.678155  -0.081262
C    0.007289  -0.334484  1.317600
C    1.363731  -0.667051  1.964181
O    1.677842  -0.338420  3.089545
H    -0.162751  -1.693083  -0.185663
H    0.569191  -0.302131  -0.653680
H    -0.090081  0.757354  1.433614
C    -1.097901  -0.968080  2.188962
O    -0.943506  -2.389464  2.014741
C    -2.494893  -0.493754  1.811292
H    -0.876109  -0.697175  3.235310
H    -1.669804  -2.830319  2.480092
H    -3.249297  -0.996342  2.434203
H    -2.705134  -0.700944  0.755697
H    -2.596350  0.587039  1.982251
O    2.200449  -1.349616  1.136625
H    3.014139  -1.500471  1.656156
