17
Energy: -11929.623655 eV PBE+vdW (tier 2 basis)
N    0.539833  -1.204610  0.413427
C    0.710669  0.026423  1.167677
C    1.556594  -0.268647  2.390033
O    1.782422  -1.366134  2.850348
H    0.507529  -2.005472  1.045223
H    -0.315356  -1.185324  -0.139477
H    1.250221  0.773193  0.561229
C    -0.624276  0.737961  1.600392
O    -0.415180  2.113938  1.905335
C    -1.382073  0.006374  2.705474
H    -1.242226  0.752599  0.687708
H    0.248215  2.163919  2.615249
H    -2.351339  0.490427  2.873768
H    -0.824750  0.025180  3.653618
H    -1.560570  -1.045038  2.441140
O    2.009445  0.881205  2.981198
H    2.491842  0.598008  3.782660
