17
Energy: -11929.7154644 eV PBE+vdW (tier 2 basis)
N    -0.580885  -0.222917  0.221676
C    -0.052740  0.035177  1.553538
C    1.486068  0.142339  1.503536
O    2.103445  0.200958  0.461988
H    -1.291093  0.458651  -0.033686
H    0.191792  -0.131890  -0.443831
H    -0.401995  0.999875  1.967535
C    -0.543248  -1.053905  2.541191
O    -0.166899  -0.590354  3.869206
C    -0.007259  -2.443914  2.240588
H    -1.643655  -1.060045  2.474069
H    -0.230695  -1.338640  4.482977
H    1.085872  -2.488297  2.344103
H    -0.271177  -2.716717  1.211200
H    -0.453519  -3.191187  2.912443
O    2.106185  0.188137  2.698360
H    1.423803  0.018729  3.400107
