17
Energy: -11929.5969476 eV PBE+vdW (tier 2 basis)
N    -0.197490  0.924365  1.032955
C    -0.133338  -0.148373  2.025017
C    1.252307  -0.187904  2.660041
O    1.494850  -0.110276  3.842849
H    -1.163429  1.220135  0.900711
H    0.137256  0.577706  0.131436
H    -0.809611  0.096207  2.854166
C    -0.505564  -1.574894  1.498185
O    0.198833  -1.881800  0.291207
C    -1.988730  -1.695776  1.188154
H    -0.241644  -2.304426  2.288338
H    1.151302  -1.798386  0.471875
H    -2.591344  -1.534178  2.091266
H    -2.206899  -2.697358  0.798697
H    -2.289624  -0.965381  0.424735
O    2.237391  -0.380069  1.723061
H    3.079733  -0.396592  2.218307
