17
Energy: -11929.6010746 eV PBE+vdW (tier 2 basis)
N    -0.010671  1.017851  0.781648
C    -0.205225  -0.005717  1.804305
C    1.067018  -0.321027  2.590840
O    2.188460  -0.324679  2.125397
H    0.073180  1.936277  1.217110
H    0.876892  0.849262  0.302988
H    -0.958509  0.359693  2.518541
C    -0.794533  -1.297894  1.151933
O    -1.036086  -2.320270  2.122057
C    0.089322  -1.914478  0.080628
H    -1.741693  -0.967023  0.688255
H    -1.597260  -1.958198  2.825752
H    1.056735  -2.229336  0.491973
H    0.263633  -1.206043  -0.738111
H    -0.413431  -2.796442  -0.334498
O    0.807717  -0.598053  3.897724
H    1.666452  -0.830921  4.303460
