17
Energy: -11929.6135718 eV PBE+vdW (tier 2 basis)
N    -0.321520  0.769971  0.269407
C    -0.111677  -0.167542  1.356630
C    1.391622  -0.456172  1.511116
O    2.234843  -0.005448  0.768248
H    0.515072  0.796993  -0.317072
H    -1.130788  0.533545  -0.300717
H    -0.439233  0.281020  2.314588
C    -0.921033  -1.483903  1.228186
O    -0.875556  -2.096668  2.542483
C    -0.428118  -2.428219  0.140863
H    -1.966916  -1.191401  1.022212
H    -1.125205  -3.029938  2.456373
H    -1.093733  -3.297971  0.045213
H    0.589207  -2.785399  0.351220
H    -0.413917  -1.918619  -0.831672
O    1.716242  -1.257991  2.548938
H    0.876729  -1.631360  2.914350
