19
Energy: -15015.3670919 eV PBE+vdW (tier 2 basis)
N    0.215454  -0.283767  0.351224
C    -0.106286  -0.057464  1.753238
C    1.008520  0.492892  2.652682
O    0.861457  1.302224  3.538760
H    0.565999  0.564906  -0.090189
H    0.911712  -1.015271  0.210424
H    -0.874723  0.728107  1.787390
C    -0.743969  -1.304082  2.417299
C    0.183347  -2.456824  2.859243
C    0.851053  -3.211973  1.715900
O    0.365905  -4.175691  1.174668
O    2.060496  -2.727779  1.295113
H    -1.489521  -1.686178  1.706046
H    -1.286067  -0.963857  3.310107
H    -0.432642  -3.194973  3.386568
H    0.936022  -2.092457  3.574971
O    2.251179  -0.042177  2.368676
H    2.868611  0.369729  3.004860
H    2.296961  -1.923925  1.804298
