19
Energy: -15015.5609026 eV PBE+vdW (tier 2 basis)
N    0.472972  -0.529372  -0.472305
C    0.116639  -0.109037  0.879091
C    1.343091  0.474402  1.568289
O    2.417507  0.660704  1.034994
H    1.369559  -0.113980  -0.729617
H    -0.228710  -0.231267  -1.145945
H    -0.625278  0.714401  0.882152
C    -0.476001  -1.277597  1.700590
C    -1.692360  -1.927009  1.015474
C    -2.848271  -0.962760  0.891160
O    -3.601703  -0.635439  1.783047
O    -2.948650  -0.442238  -0.373406
H    -0.756047  -0.924794  2.701454
H    0.298691  -2.049208  1.815938
H    -2.037418  -2.768859  1.628829
H    -1.401943  -2.301961  0.027118
O    1.102304  0.787927  2.868394
H    1.935532  1.163213  3.213386
H    -3.703912  0.177875  -0.343641
