19
Energy: -15015.5155704 eV PBE+vdW (tier 2 basis)
N    -0.412009  0.446164  -0.167446
C    0.029011  0.116581  1.178358
C    1.415320  -0.518838  1.349588
O    2.059219  -0.491193  2.379460
H    -0.688485  -0.394957  -0.677087
H    0.324543  0.912359  -0.694876
H    0.103509  1.054727  1.750814
C    -1.018194  -0.763196  1.916145
C    -0.879172  -2.285413  1.808708
C    -1.122069  -2.907079  0.452947
O    -1.473389  -2.341141  -0.563275
O    -0.914840  -4.252783  0.494803
H    -2.004202  -0.440601  1.554673
H    -0.968485  -0.519973  2.985175
H    -1.594676  -2.763207  2.496853
H    0.105862  -2.628494  2.161255
O    1.861799  -1.151454  0.226589
H    2.734207  -1.521693  0.465891
H    -1.102638  -4.580923  -0.405996
