19
Energy: -15015.6247833 eV PBE+vdW (tier 2 basis)
N    -0.785296  0.880643  2.067880
C    0.139694  -0.238638  2.114144
C    1.130208  -0.283380  0.944117
O    2.196461  -1.089574  1.220127
H    2.756706  -1.081595  0.419458
H    -1.312368  0.867517  1.192472
H    0.738450  -0.149438  3.035460
C    -0.622183  -1.581190  2.173611
C    -1.655281  -1.617683  3.300702
C    -2.955103  -0.928403  2.946940
O    -3.446525  -0.868636  1.838051
O    -3.574832  -0.429471  4.051796
H    0.105302  -2.391639  2.306787
H    -1.133783  -1.755155  1.214681
H    -1.261824  -1.193413  4.233468
H    -1.921344  -2.664970  3.519323
O    1.006120  0.304259  -0.108487
H    -0.278957  1.765374  2.089819
H    -4.415445  -0.046605  3.733652
