19
Energy: -15015.528818 eV PBE+vdW (tier 2 basis)
N    -0.182716  0.468190  0.028685
C    -0.082540  0.111341  1.439282
C    1.353868  0.366574  1.875307
O    2.321828  0.301069  1.150273
H    -0.957575  -0.022529  -0.415846
H    0.679588  0.196460  -0.447978
H    -0.727783  0.780262  2.033560
C    -0.504944  -1.352945  1.750380
C    -0.644330  -1.714867  3.230878
C    0.636155  -2.187960  3.883195
O    1.641285  -2.549664  3.308863
O    0.519430  -2.204616  5.241394
H    0.198399  -2.042065  1.261236
H    -1.483689  -1.489931  1.267412
H    -1.362555  -2.542172  3.349444
H    -1.053745  -0.884326  3.823619
O    1.436194  0.667414  3.200594
H    2.390534  0.734372  3.400203
H    1.364181  -2.561960  5.577538
