19
Energy: -15015.5547303 eV PBE+vdW (tier 2 basis)
N    -0.568936  0.516804  0.445574
C    -0.034540  0.127910  1.738198
C    1.441482  -0.287232  1.721844
O    2.096514  -0.569871  0.741884
H    0.114936  1.065452  -0.075422
H    -0.785194  -0.310979  -0.113716
H    -0.082488  1.001765  2.409973
C    -0.893044  -0.982292  2.401563
C    -0.525098  -2.440065  2.103064
C    -0.779908  -2.941752  0.699883
O    -1.306468  -2.335362  -0.211742
O    -0.354904  -4.227721  0.563851
H    -1.935017  -0.785274  2.113653
H    -0.831378  -0.857409  3.490218
H    -1.098190  -3.102040  2.771789
H    0.527514  -2.653715  2.344199
O    1.966354  -0.304055  2.985257
H    2.899442  -0.576217  2.884996
H    -0.555081  -4.481059  -0.358198
