19
Energy: -15015.5272884 eV PBE+vdW (tier 2 basis)
N    0.871677  -1.561840  2.313327
C    0.002450  -0.553447  1.702300
C    0.719549  0.265391  0.636539
O    1.699375  -0.447052  0.008635
H    2.066666  0.150023  -0.671490
H    1.499650  -1.955126  1.614090
H    -0.840709  -1.014909  1.141746
C    -0.593534  0.392837  2.758917
C    -1.303507  -0.334070  3.919901
C    -2.386047  -1.268658  3.440492
O    -2.211806  -2.418029  3.078623
O    -3.612224  -0.676983  3.414388
H    -1.284069  1.088836  2.266015
H    0.219652  0.991855  3.191803
H    -1.732910  0.412900  4.598101
H    -0.572994  -0.934597  4.476072
O    0.444142  1.403900  0.323863
H    0.294988  -2.328937  2.662699
H    -4.228349  -1.348092  3.059977
