19
Energy: -15015.4134139 eV PBE+vdW (tier 2 basis)
N    0.625069  -0.020381  3.536187
C    0.390705  -1.070196  2.553038
C    1.524450  -1.188760  1.513533
O    1.627057  -2.386202  0.860922
H    0.957445  -3.005325  1.200888
H    0.942666  0.819583  3.045171
H    0.317207  -2.028061  3.098530
C    -0.941354  -0.817354  1.812546
C    -2.132495  -0.840163  2.764494
C    -3.419707  -0.393715  2.116053
O    -3.531133  0.132212  1.028458
O    -4.491734  -0.643054  2.923888
H    -1.081153  -1.557014  1.010225
H    -0.885024  0.160305  1.311971
H    -1.933892  -0.173180  3.618433
H    -2.291193  -1.838185  3.200482
O    2.284647  -0.290450  1.246428
H    1.392768  -0.282757  4.154791
H    -5.271329  -0.303303  2.442963
