19
Energy: -15015.478179 eV PBE+vdW (tier 2 basis)
N    1.399834  -1.109386  2.031333
C    0.307172  -0.354855  1.427760
C    0.650271  1.127343  1.525836
O    1.754918  1.565436  1.770379
H    1.483320  -2.029106  1.602543
H    2.279505  -0.607173  1.905488
H    0.206359  -0.533322  0.334024
C    -1.032655  -0.747157  2.095173
C    -2.293398  -0.491258  1.260827
C    -2.347611  -1.215029  -0.066251
O    -2.768657  -0.753665  -1.105513
O    -1.886401  -2.501975  0.022190
H    -1.119962  -0.233873  3.062816
H    -0.959589  -1.818225  2.322729
H    -2.441864  0.572024  1.048148
H    -3.170263  -0.830878  1.835734
O    -0.414795  1.933549  1.269369
H    -0.074666  2.848077  1.318295
H    -1.997520  -2.879529  -0.871878
