19
Energy: -15015.2979666 eV PBE+vdW (tier 2 basis)
N    -0.118024  0.539633  0.149457
C    0.063661  0.183672  1.563966
C    1.558889  0.087944  1.925430
O    2.191087  1.011942  2.378808
H    0.302074  -0.160170  -0.465362
H    0.346022  1.426322  -0.051700
H    -0.314967  1.026616  2.159098
C    -0.755924  -1.066889  1.893164
C    -0.727046  -1.436215  3.386328
C    -1.492355  -2.706568  3.675858
O    -2.517015  -2.792508  4.315605
O    -0.885487  -3.792551  3.106390
H    -0.415484  -1.926454  1.287701
H    -1.788419  -0.874624  1.569789
H    -1.176004  -0.637825  3.988057
H    0.310070  -1.577347  3.727792
O    2.196605  -1.087335  1.623238
H    1.546102  -1.751499  1.330004
H    -1.444785  -4.561143  3.331380
