19
Energy: -15015.4627731 eV PBE+vdW (tier 2 basis)
N    1.296571  -0.377586  0.053380
C    0.410829  0.335672  0.978823
C    1.159236  0.818624  2.218354
O    0.652719  1.049889  3.293748
H    0.892859  -0.394539  -0.882317
H    2.195786  0.096297  -0.018502
H    0.008651  1.280817  0.545942
C    -0.784376  -0.531435  1.395289
C    -1.679400  -0.889295  0.213525
C    -2.922813  -1.650789  0.614875
O    -3.250862  -1.952424  1.741434
O    -3.672291  -1.974806  -0.481141
H    -1.363784  0.004079  2.157102
H    -0.405691  -1.448232  1.867637
H    -1.150573  -1.506337  -0.529635
H    -2.010925  0.012373  -0.328807
O    2.484889  1.030910  1.973041
H    2.857936  1.369836  2.809679
H    -4.449761  -2.456055  -0.137429
