19
Energy: -15015.5126376 eV PBE+vdW (tier 2 basis)
N    -0.001821  0.711999  0.341617
C    0.388131  -0.055206  1.519299
C    1.896300  -0.213226  1.606497
O    2.508764  -0.397010  2.650315
H    -1.006562  0.886073  0.360364
H    0.202581  0.200002  -0.517392
H    0.109378  0.535698  2.404256
C    -0.280207  -1.459218  1.640525
C    0.081779  -2.308055  2.875198
C    -0.275266  -1.624801  4.195522
O    -1.334962  -1.792682  4.757964
O    0.658579  -0.787421  4.708936
H    -0.043569  -2.033212  0.731099
H    -1.366370  -1.285047  1.633501
H    1.147034  -2.578776  2.859566
H    -0.498444  -3.237472  2.837214
O    2.514176  -0.206055  0.409790
H    3.464902  -0.352727  0.585085
H    1.423253  -0.698153  4.085548
