19
Energy: -15015.3263777 eV PBE+vdW (tier 2 basis)
N    0.903790  0.003738  3.680989
C    0.425896  -0.889640  2.636034
C    1.485047  -0.919966  1.526765
O    1.519475  -2.043697  0.758175
H    0.888243  -2.698208  1.105825
H    1.461378  0.744017  3.248542
H    0.338411  -1.913021  3.053676
C    -0.936106  -0.524889  1.991096
C    -2.091518  -0.569618  2.988267
C    -3.444009  -0.395786  2.329971
O    -3.677557  -0.487882  1.144328
O    -4.410374  -0.135931  3.255983
H    -1.161177  -1.215052  1.163986
H    -0.858619  0.477593  1.544898
H    -2.000148  0.191660  3.776579
H    -2.118078  -1.538864  3.515389
O    2.233555  -0.001776  1.294079
H    0.138564  0.433582  4.196806
H    -5.248773  -0.068257  2.758613
