19
Energy: -15015.5028001 eV PBE+vdW (tier 2 basis)
N    0.674548  0.524040  0.582759
C    0.037150  -0.012690  1.775984
C    1.135874  -0.412024  2.750939
O    2.240267  -0.796473  2.431627
H    0.021555  0.589187  -0.196056
H    1.450340  -0.079770  0.305303
H    -0.560601  0.780404  2.253726
C    -0.881785  -1.252827  1.581027
C    -2.118757  -0.934530  0.723644
C    -2.946136  -2.180165  0.505803
O    -2.749593  -3.014999  -0.351493
O    -3.947477  -2.290511  1.427240
H    -1.210125  -1.615347  2.566466
H    -0.298241  -2.055732  1.106176
H    -1.816485  -0.578845  -0.270502
H    -2.727502  -0.161015  1.210327
O    0.718074  -0.337314  4.043002
H    1.461758  -0.662571  4.587243
H    -4.398154  -3.135556  1.232353
