19
Energy: -15015.5485201 eV PBE+vdW (tier 2 basis)
N    -0.408416  0.642473  0.806134
C    0.572075  0.204087  1.815350
C    1.767316  -0.479182  1.094648
O    1.564874  -0.620379  -0.221531
H    0.653112  -0.204359  -0.342603
H    -0.390366  1.650771  0.669272
H    1.007755  1.060786  2.356496
C    0.001876  -0.783930  2.844457
C    -0.882957  -0.176640  3.937891
C    -2.321970  0.118488  3.540874
O    -2.795947  -0.038711  2.437591
O    -3.118716  0.589578  4.541412
H    0.862696  -1.264456  3.327186
H    -0.551163  -1.576854  2.317890
H    -0.435301  0.755063  4.324606
H    -0.920770  -0.865906  4.798000
O    2.765282  -0.847189  1.676830
H    -1.360512  0.372986  1.067508
H    -2.611868  0.651373  5.369990
