19
Energy: -15015.5860613 eV PBE+vdW (tier 2 basis)
N    -1.079452  -0.875467  -0.198876
C    -0.257064  -0.118760  0.740697
C    1.038111  -0.845408  1.116451
O    1.968696  0.003410  1.632231
H    2.738378  -0.547964  1.875303
H    -0.709580  -0.774942  -1.143839
H    0.029575  0.832238  0.269767
C    -1.045961  0.241747  2.022006
C    -1.569351  -0.974093  2.781436
C    -2.309927  -0.601681  4.044308
O    -2.465428  0.517858  4.484261
O    -2.804897  -1.710312  4.669149
H    -1.890964  0.870665  1.713141
H    -0.415056  0.853400  2.680516
H    -0.760479  -1.665689  3.067949
H    -2.255302  -1.567817  2.158199
O    1.227685  -2.039414  1.003429
H    -1.009290  -1.872702  0.016563
H    -3.259694  -1.383068  5.469309
