19
Energy: -15015.5110471 eV PBE+vdW (tier 2 basis)
N    -0.125805  0.086191  0.530415
C    0.287162  -0.445612  1.819119
C    1.423329  -1.431875  1.579645
O    1.521664  -2.156400  0.613326
H    -0.381346  -0.666108  -0.109128
H    -0.904189  0.736540  0.616672
H    0.683472  0.384202  2.424649
C    -0.784535  -1.189716  2.668294
C    -1.967501  -0.301817  3.094577
C    -2.924945  0.061949  1.981938
O    -3.135888  1.181898  1.559737
O    -3.568807  -1.035813  1.492142
H    -0.303550  -1.574582  3.580024
H    -1.152059  -2.059802  2.104615
H    -1.613537  0.635864  3.540825
H    -2.548383  -0.841386  3.857028
O    2.304306  -1.454375  2.618037
H    2.957436  -2.148817  2.402134
H    -4.158588  -0.708219  0.785613
