19
Energy: -15015.4872294 eV PBE+vdW (tier 2 basis)
N    0.063595  -0.456342  -0.152353
C    0.065657  -0.093443  1.261383
C    1.466437  -0.088549  1.853523
O    1.732329  0.385684  2.951887
H    0.620322  0.193855  -0.706443
H    -0.890022  -0.418744  -0.512418
H    -0.316023  0.925821  1.467299
C    -0.838429  -1.099707  2.019832
C    -0.963980  -0.930027  3.543505
C    -1.502917  0.439445  3.956956
O    -2.682696  0.665845  4.113718
O    -0.577815  1.415558  4.126742
H    -0.478402  -2.112574  1.790253
H    -1.840361  -1.009949  1.573022
H    -0.001401  -1.126872  4.035188
H    -1.682929  -1.672808  3.908691
O    2.410063  -0.651749  1.077835
H    3.248222  -0.582536  1.577934
H    0.315670  1.079810  3.861335
