19
Energy: -15015.5924711 eV PBE+vdW (tier 2 basis)
N    0.504948  1.575085  2.234102
C    -0.137891  0.252088  2.114082
C    0.939837  -0.839886  2.288596
O    0.678914  -2.008479  2.478969
H    0.448565  1.931381  3.187404
H    0.061795  2.262453  1.625462
H    -0.900423  0.082252  2.888032
C    -0.794873  0.118659  0.724181
C    -1.605666  -1.159228  0.498452
C    -2.953135  -1.270299  1.179405
O    -3.685544  -2.230841  1.094798
O    -3.293032  -0.159063  1.904936
H    -0.003895  0.173562  -0.039953
H    -1.442668  0.996068  0.576391
H    -1.033624  -2.047178  0.804332
H    -1.806420  -1.289225  -0.575210
O    2.196196  -0.372800  2.170203
H    2.065308  0.613403  2.066120
H    -4.172392  -0.357951  2.281700
