19
Energy: -15015.5933927 eV PBE+vdW (tier 2 basis)
N    0.353472  0.316067  0.065609
C    0.225105  0.121216  1.522130
C    1.637898  -0.058418  2.124390
O    1.869781  0.017133  3.311487
H    0.392880  1.304743  -0.178837
H    -0.430602  -0.094694  -0.439942
H    -0.227598  0.988855  2.028124
C    -0.631462  -1.128088  1.806069
C    -0.948013  -1.339064  3.292310
C    -1.787101  -2.566478  3.557905
O    -2.822835  -2.592502  4.187857
O    -1.236136  -3.690819  3.009901
H    -0.124809  -2.014774  1.398148
H    -1.576949  -1.013849  1.250451
H    -1.492520  -0.482315  3.705958
H    -0.010841  -1.433396  3.861393
O    2.576237  -0.341350  1.203295
H    2.077663  -0.281366  0.338821
H    -1.834170  -4.423901  3.252930
