28
Energy: -37222.4614434 eV PBE+vdW (tier 2 basis)
N    2.010843  1.435286  3.137770
C    1.558292  -0.005196  3.110503
C    0.537610  -0.164950  1.947712
O    0.866584  0.547304  0.880003
H    1.318412  1.973870  3.673674
H    2.866260  1.506195  3.698669
H    2.441186  -0.596955  2.819347
C    1.039410  -0.502024  4.478648
C    0.966816  -1.997349  4.633449
C    2.061185  -2.831932  4.938636
C    -0.152694  -2.840127  4.574537
N    1.656986  -4.116733  5.046205
C    0.291434  -4.171477  4.831722
C    -1.584271  -2.612365  4.299802
C    -0.558032  -5.259977  4.851213
C    -2.438866  -3.815464  4.356421
C    -1.944921  -5.066994  4.607148
H    0.046471  -0.066359  4.661003
H    1.706149  -0.105620  5.260369
H    3.102228  -2.566919  5.100978
H    2.255553  -4.904978  5.272864
H    -1.681702  -2.146169  3.293471
H    -0.179107  -6.263384  5.053789
H    -3.505623  -3.678209  4.176955
H    -2.608706  -5.929357  4.627158
O    -0.438516  -0.878686  2.037439
H    -2.015255  -1.824920  4.948216
Ca    2.015277  2.198488  0.790299
