28
Energy: -37222.7435671 eV PBE+vdW (tier 2 basis)
N    -1.360485  1.984528  2.310279
C    -0.098229  1.291462  2.431895
C    0.925806  1.598173  1.336098
O    2.177948  1.393537  1.551338
H    -1.333963  2.935592  2.671836
H    -1.709398  2.011751  1.351693
H    0.383562  1.589572  3.373803
C    -0.334003  -0.248930  2.471771
C    -1.421160  -0.579160  3.522090
C    -2.190877  -1.815156  3.264947
C    -1.042288  -0.732670  4.974481
N    -2.291612  -2.523451  4.360936
C    -1.614849  -1.926671  5.448660
C    -0.317096  0.052334  5.863490
C    -1.505912  -2.385975  6.755357
C    -0.181621  -0.390425  7.184967
C    -0.765722  -1.586152  7.625580
H    0.599282  -0.781588  2.691631
H    -0.686723  -0.574916  1.481495
H    -2.657960  -2.132806  2.335391
H    -2.813312  -3.399021  4.430533
H    0.135780  0.995029  5.561680
H    -1.972352  -3.312340  7.087802
H    0.387232  0.212001  7.891691
H    -0.644297  -1.893749  8.662700
O    0.547203  2.065161  0.199399
H    -2.142323  0.278452  3.402928
Ca    2.629369  2.215417  -0.400473
