28
Energy: -37223.3301426 eV PBE+vdW (tier 2 basis)
N    -1.068728  0.790523  1.251960
C    -0.241249  -0.076233  2.136967
C    1.005974  -0.456579  1.339801
O    1.018374  -0.401095  0.101659
H    -0.706312  1.749285  1.300770
H    -2.016962  0.837239  1.639119
H    0.079855  0.465492  3.041265
C    -1.046651  -1.357895  2.612153
C    -2.106959  -1.736398  1.627349
C    -3.441858  -1.385098  1.704195
C    -1.900772  -2.224408  0.288219
N    -4.050223  -1.560331  0.481695
C    -3.131119  -2.020876  -0.426345
C    -0.799049  -2.790289  -0.399318
C    -3.215117  -2.184363  -1.819094
C    -0.885936  -2.960433  -1.782609
C    -2.068818  -2.620018  -2.489659
H    -1.505885  -1.116490  3.578620
H    -0.341010  -2.178810  2.802865
H    -4.008365  -1.008284  2.551291
H    -5.038245  -1.411323  0.297845
H    0.109971  -3.074586  0.130375
H    -4.140852  -1.993471  -2.362199
H    -0.044347  -3.386740  -2.328143
H    -2.103033  -2.758800  -3.569550
O    2.080970  -0.888530  1.956886
H    2.019400  -0.847167  2.932268
Ca    -0.869054  -0.249325  -1.093383
