28
Energy: -37222.5217491 eV PBE+vdW (tier 2 basis)
N    -0.620081  -1.386580  1.967994
C    0.630602  -1.393014  1.235113
C    1.671783  -0.572965  1.991197
O    2.736899  -0.152727  1.403196
H    -0.462835  -1.383086  2.975360
H    -0.259632  -1.226235  -2.163584
H    1.117798  -2.396843  1.170934
C    0.476406  -0.851565  -0.204936
C    -0.291316  -1.766076  -1.189451
C    0.324951  -3.085526  -1.507368
C    -1.733233  -2.143779  -0.931656
N    -0.590092  -4.018819  -1.497489
C    -1.871473  -3.524102  -1.157279
C    -2.856929  -1.401736  -0.592278
C    -3.073410  -4.217002  -1.065196
C    -4.080598  -2.074566  -0.486435
C    -4.188805  -3.454307  -0.719013
H    1.471137  -0.654302  -0.625812
H    -0.059280  0.105912  -0.157348
H    1.358727  -3.299097  -1.770390
H    -0.411235  -4.995347  -1.742439
H    -2.795640  -0.331491  -0.403313
H    -3.148599  -5.286259  -1.258110
H    -4.974032  -1.512321  -0.218573
H    -5.160119  -3.938277  -0.632138
O    1.505566  -0.323311  3.241145
H    -1.207586  -2.185894  1.741890
Ca    3.376029  0.762314  3.264979
