28
Energy: -37222.50375 eV PBE+vdW (tier 2 basis)
N    -0.981489  0.981003  1.285751
C    -0.086369  -0.110475  1.803759
C    1.107233  -0.231616  0.837694
O    1.033624  0.181386  -0.300059
H    -0.488557  1.866468  1.463714
H    -0.894322  0.902956  0.253516
H    0.263288  0.173189  2.805090
C    -0.820563  -1.473878  1.868826
C    -2.200482  -1.366373  2.450355
C    -2.543496  -1.043998  3.755056
C    -3.446875  -1.478697  1.713968
N    -3.924972  -0.897138  3.857091
C    -4.514816  -1.213453  2.629980
C    -3.754063  -1.679272  0.346263
C    -5.862018  -1.179201  2.236763
C    -5.085982  -1.636616  -0.042956
C    -6.124206  -1.399355  0.889000
H    -0.202999  -2.170588  2.451230
H    -0.890863  -1.898775  0.858022
H    -1.914069  -0.920035  4.632239
H    -4.424476  -0.870153  4.744468
H    -2.970473  -1.892071  -0.380372
H    -6.666690  -1.009493  2.951835
H    -5.344735  -1.808214  -1.087032
H    -7.157057  -1.398040  0.542732
O    2.136180  -0.862926  1.400933
H    2.860920  -0.957063  0.746390
Ca    -3.248675  1.001427  2.124742
