28
Energy: -37223.4448648 eV PBE+vdW (tier 2 basis)
N    0.200720  -1.562890  0.103467
C    0.156838  -0.567506  1.214436
C    1.552301  -0.558898  1.841981
O    2.286583  -1.554189  1.771394
H    -0.758997  -1.746192  -0.204394
H    0.645045  -1.118271  -0.708553
H    -0.097594  0.436537  0.837343
C    -0.898583  -0.959105  2.311815
C    -0.463658  -2.149822  3.109467
C    0.218212  -2.118610  4.312914
C    -0.366543  -3.503637  2.634316
N    0.782615  -3.343912  4.570108
C    0.499575  -4.205704  3.542710
C    -0.882002  -4.201021  1.512197
C    1.002287  -5.483412  3.247502
C    -0.394714  -5.478453  1.228870
C    0.575598  -6.092647  2.063485
H    -1.861558  -1.116399  1.802952
H    -1.047545  -0.091517  2.968312
H    0.363364  -1.293027  5.003247
H    1.324814  -3.569764  5.399098
H    -1.648745  -3.755146  0.878535
H    1.696239  -5.991955  3.917068
H    -0.781814  -6.028415  0.371297
H    0.946701  -7.084882  1.810243
O    1.967178  0.482216  2.526269
H    1.361684  1.248543  2.474366
Ca    1.601262  -3.535755  0.937278
