28
Energy: -37221.2024247 eV PBE+vdW (tier 2 basis)
N    0.156013  -1.063356  0.299698
C    0.015178  -0.341590  1.564481
C    1.386314  0.028344  2.137359
O    2.160999  -0.801632  2.584112
H    0.040523  -0.436289  -0.495330
H    1.076398  -1.496157  0.213718
H    -0.562301  0.573795  1.389573
C    -0.801068  -1.173598  2.610455
C    -0.142795  -2.456976  3.004041
C    0.533548  -2.706067  4.190299
C    -0.009286  -3.664724  2.202693
N    1.068947  -3.996579  4.178327
C    0.797343  -4.592068  2.940309
C    -0.638946  -4.101516  1.011139
C    0.980381  -5.926793  2.536520
C    -0.458774  -5.421565  0.613843
C    0.343113  -6.318536  1.360702
H    -1.777234  -1.362771  2.140782
H    -0.974021  -0.553082  3.500750
H    0.734857  -2.036789  5.021793
H    1.802142  -4.302994  4.817118
H    -1.221779  -3.398377  0.417645
H    1.607713  -6.618323  3.099353
H    -0.931776  -5.775813  -0.301353
H    0.472783  -7.339719  1.003448
O    1.633774  1.339868  2.044454
H    2.543813  1.515416  2.364154
Ca    -1.376040  -4.567734  4.073742
