28
Energy: -37221.1484462 eV PBE+vdW (tier 2 basis)
N    0.730235  -1.560098  0.161005
C    0.033930  -0.548769  0.920318
C    0.860562  0.451000  1.772136
O    0.366640  1.127144  2.646039
H    1.075813  -1.204939  -0.728749
H    1.532320  -1.938338  0.666372
H    -0.517812  0.091549  0.212211
C    -1.007799  -1.211056  1.881803
C    -2.107077  -1.816535  1.083262
C    -2.066375  -3.038208  0.418879
C    -3.361717  -1.182815  0.699219
N    -3.259246  -3.229379  -0.296444
C    -4.043355  -2.067597  -0.196793
C    -4.002105  0.013214  1.101507
C    -5.330417  -1.802815  -0.690831
C    -5.271055  0.280469  0.602938
C    -5.923699  -0.611324  -0.279602
H    -1.373739  -0.439969  2.572317
H    -0.479554  -1.970563  2.475137
H    -1.265248  -3.770631  0.376434
H    -3.359981  -3.921957  -1.037755
H    -3.501711  0.716585  1.767136
H    -5.831946  -2.475639  -1.386453
H    -5.774692  1.204016  0.886160
H    -6.913001  -0.355249  -0.657331
O    2.147637  0.478699  1.392101
H    2.610384  1.153478  1.931221
Ca    -4.102946  -3.181934  2.046092
