28
Energy: -37221.0900296 eV PBE+vdW (tier 2 basis)
N    0.180291  0.432431  0.015602
C    -0.094777  0.115960  1.407476
C    1.061809  0.307653  2.427923
O    1.159222  -0.324160  3.455815
H    0.129202  1.437340  -0.149294
H    1.127476  0.151742  -0.245083
H    -0.883771  0.801335  1.759352
C    -0.616584  -1.343562  1.566322
C    -2.066129  -1.471104  1.234430
C    -3.095235  -1.674337  2.147578
C    -2.699680  -1.383078  -0.075725
N    -4.325053  -1.753426  1.478312
C    -4.114527  -1.515639  0.111132
C    -2.183484  -1.311914  -1.391588
C    -5.018030  -1.587335  -0.961571
C    -3.079272  -1.379166  -2.452549
C    -4.471591  -1.510477  -2.241561
H    -0.433455  -1.652815  2.604066
H    -0.001911  -1.983383  0.913038
H    -3.054117  -1.739553  3.232183
H    -5.224884  -1.647102  1.946118
H    -1.115878  -1.155829  -1.540549
H    -6.094004  -1.668147  -0.807060
H    -2.706553  -1.312591  -3.474022
H    -5.138718  -1.541974  -3.102567
O    1.897563  1.280775  2.029044
H    2.578870  1.399865  2.722667
Ca    -3.167721  -3.765569  0.574289
