28
Energy: -37223.4763312 eV PBE+vdW (tier 2 basis)
N    -0.247859  0.151882  0.037765
C    -0.669402  -0.007360  1.482653
C    0.560469  0.542399  2.270933
O    0.342394  0.888581  3.495892
H    -0.496308  -0.642346  -0.563702
H    0.810398  0.249121  0.145718
H    -1.547299  0.623141  1.660672
C    -0.979098  -1.507476  1.771144
C    -0.776307  -1.927047  3.195564
C    0.174054  -2.825917  3.633733
C    -1.422181  -1.423318  4.374438
N    0.183101  -2.883483  5.008260
C    -0.763938  -2.025283  5.505696
C    -2.456472  -0.488468  4.612133
C    -1.066195  -1.657387  6.827713
C    -2.766987  -0.131019  5.928975
C    -2.065785  -0.696258  7.025982
H    -0.310243  -2.123138  1.151105
H    -2.005841  -1.720107  1.436961
H    0.865239  -3.433751  3.057457
H    0.758123  -3.515129  5.557693
H    -3.013696  -0.049420  3.784538
H    -0.557705  -2.115272  7.676794
H    -3.575327  0.574215  6.121484
H    -2.337194  -0.408845  8.041190
O    1.626477  0.595401  1.663353
H    -0.609886  1.010331  -0.395054
Ca    -0.216530  0.745954  5.487911
