28
Energy: -37223.1170911 eV PBE+vdW (tier 2 basis)
N    -0.727481  0.346308  -0.150888
C    -0.844301  0.424450  1.309633
C    0.085492  1.587476  1.724159
O    0.243263  1.946743  2.917821
H    -1.607662  0.500760  -0.641439
H    -0.318816  -0.525960  -0.487651
H    -1.864960  0.728775  1.589379
C    -0.490712  -0.903976  2.028185
C    -0.525794  -0.890177  3.534860
C    -1.639124  -0.737665  4.345829
C    0.601880  -1.111337  4.424097
N    -1.262574  -0.803719  5.688229
C    0.102918  -1.099238  5.765177
C    1.993281  -1.261852  4.216912
C    0.933988  -1.245487  6.887061
C    2.814937  -1.404796  5.325547
C    2.293335  -1.403215  6.640360
H    0.507415  -1.227121  1.699235
H    -1.194931  -1.666021  1.664568
H    -2.685384  -0.612759  4.081066
H    -1.924727  -0.957817  6.446521
H    2.413649  -1.282280  3.212131
H    0.534696  -1.261777  7.900951
H    3.887026  -1.535089  5.184638
H    2.972677  -1.538903  7.480951
O    0.679635  2.162540  0.746880
H    0.295048  1.599791  -0.065217
Ca    0.023227  1.359344  4.947005
