28
Energy: -37221.3446301 eV PBE+vdW (tier 2 basis)
N    0.853364  -0.676430  0.242482
C    0.145745  -0.168896  1.408434
C    1.102158  0.034757  2.591726
O    1.249455  -0.751913  3.514784
H    1.418066  0.041202  -0.209779
H    1.453609  -1.473235  0.457883
H    -0.278564  0.809208  1.139149
C    -0.999690  -1.151697  1.758134
C    -1.973773  -0.654105  2.780851
C    -3.080050  0.145377  2.527902
C    -1.954083  -0.832375  4.206277
N    -3.751092  0.442231  3.693308
C    -3.099997  -0.128986  4.752710
C    -1.070942  -1.493192  5.104183
C    -3.401858  -0.143740  6.126235
C    -1.366746  -1.490452  6.473808
C    -2.530722  -0.843186  6.980604
H    -0.549886  -2.098396  2.090570
H    -1.521928  -1.354044  0.814577
H    -3.437283  0.535762  1.578826
H    -4.560461  1.054996  3.753853
H    -0.157624  -1.950100  4.718939
H    -4.267530  0.385367  6.527653
H    -0.685201  -1.977669  7.171926
H    -2.726112  -0.849101  8.052849
O    1.822090  1.157317  2.443091
H    2.498297  1.193794  3.150165
Ca    -3.350421  -2.731615  5.359081
