28
Energy: -37223.5851193 eV PBE+vdW (tier 2 basis)
N    0.185149  3.057936  2.871044
C    -0.072600  1.596989  2.564455
C    0.521025  1.421487  1.136557
O    0.759614  0.210214  0.760537
H    0.362765  3.450672  1.897707
H    1.027891  3.201749  3.440708
H    0.459374  0.976285  3.293902
C    -1.602299  1.317466  2.609725
C    -1.959064  -0.060355  2.142647
C    -2.045296  -1.199361  2.915690
C    -2.160028  -0.482794  0.784270
N    -2.234927  -2.304844  2.117720
C    -2.296654  -1.915611  0.804044
C    -2.221520  0.188775  -0.459018
C    -2.403474  -2.670042  -0.376620
C    -2.350926  -0.560630  -1.634025
C    -2.420032  -1.977774  -1.594884
H    -2.117211  2.068393  1.989616
H    -1.950775  1.461539  3.642778
H    -1.979059  -1.310288  3.993899
H    -2.389396  -3.247324  2.463173
H    -2.161385  1.276330  -0.512276
H    -2.498594  -3.756062  -0.352581
H    -2.419392  -0.050279  -2.594693
H    -2.531208  -2.535279  -2.524346
O    0.671777  2.446524  0.469175
H    -0.599643  3.536030  3.329674
Ca    0.078891  -1.205744  -0.620876
