28
Energy: -37223.7601942 eV PBE+vdW (tier 2 basis)
N    0.306215  -1.633575  0.518106
C    0.140699  -0.228512  1.070056
C    1.328189  -0.013995  2.022051
O    1.851447  -1.062699  2.541964
H    0.786111  -2.178521  1.265814
H    0.913744  -1.646913  -0.312927
H    0.157597  0.474329  0.229788
C    -1.191565  -0.090307  1.878451
C    -1.090463  -0.677886  3.256196
C    -1.246643  -2.000454  3.621180
C    -0.533652  -0.013060  4.408178
N    -0.762100  -2.205028  4.892693
C    -0.288960  -1.022385  5.398740
C    -0.228860  1.333894  4.717817
C    0.383253  -0.738412  6.599612
C    0.405004  1.623857  5.928759
C    0.741457  0.591555  6.843917
H    -2.011940  -0.535978  1.295551
H    -1.413572  0.983633  1.925078
H    -1.681651  -2.828636  3.068947
H    -0.812637  -3.084232  5.398269
H    -0.467124  2.135490  4.019620
H    0.594594  -1.516457  7.333251
H    0.627954  2.659056  6.187035
H    1.238732  0.846536  7.779252
O    1.617007  1.153489  2.388945
H    -0.587823  -2.072415  0.262650
Ca    2.222984  0.255626  4.409008
