28
Energy: -37222.5163617 eV PBE+vdW (tier 2 basis)
N    -0.816017  0.480981  0.268132
C    -0.094486  -0.042126  1.438570
C    1.321707  0.525808  1.451669
O    1.532016  1.672026  2.001093
H    -1.205946  1.405687  0.447356
H    -0.226079  0.548335  -0.561966
H    -0.581563  0.376836  2.328977
C    -0.167491  -1.578374  1.565120
C    -0.057912  -2.415473  0.254751
C    -1.312065  -2.392675  -0.560909
C    0.124866  -3.899583  0.492333
N    -1.758669  -3.606578  -0.730516
C    -0.935738  -4.584108  -0.120338
C    1.091001  -4.631323  1.168059
C    -1.094262  -5.963923  -0.102363
C    0.958432  -6.026103  1.206079
C    -0.112800  -6.681285  0.583331
H    -1.117222  -1.831468  2.054731
H    0.625856  -1.927282  2.239761
H    -1.832969  -1.519868  -0.945035
H    -2.610805  -3.831379  -1.249038
H    1.935831  -4.147195  1.656658
H    -1.929889  -6.462761  -0.591302
H    1.706143  -6.617830  1.732215
H    -0.182055  -7.766458  0.634716
O    2.305302  -0.079185  0.871748
H    0.768899  -2.014080  -0.361721
Ca    3.609917  1.571384  1.473887
