28
Energy: -37222.5144575 eV PBE+vdW (tier 2 basis)
N    0.446241  0.671234  0.318601
C    0.259320  -0.124944  1.518335
C    1.601947  -0.464191  2.148892
O    1.733396  -1.469922  2.940194
H    -0.341063  1.294926  0.144006
H    0.150058  -1.137522  -0.679286
H    -0.227310  0.442740  2.342309
C    -0.668265  -1.338917  1.252425
C    -0.477770  -1.929175  -0.171921
C    0.238321  -3.214310  -0.287465
C    -1.701311  -2.170612  -1.016904
N    -0.405379  -4.022402  -1.095956
C    -1.600841  -3.451889  -1.583990
C    -2.803538  -1.384133  -1.326204
C    -2.539718  -3.999778  -2.450992
C    -3.769321  -1.913076  -2.190671
C    -3.639998  -3.195540  -2.745319
H    -1.706204  -0.991408  1.321782
H    -0.544503  -2.094293  2.036766
H    1.171488  -3.513803  0.181913
H    -0.081094  -4.956416  -1.351169
H    -2.927080  -0.383022  -0.914337
H    -2.429026  -4.995440  -2.878229
H    -4.644179  -1.314761  -2.441005
H    -4.411619  -3.570021  -3.415673
O    2.600964  0.330364  1.975905
H    1.295126  1.234917  0.359649
Ca    3.677360  -0.691608  3.548343
