28
Energy: -37223.4736181 eV PBE+vdW (tier 2 basis)
N    -1.059090  1.367002  2.668478
C    -0.235565  0.154137  2.395167
C    -0.256545  -0.044450  0.886089
O    -1.234470  0.295698  0.198762
H    -1.134135  1.489259  3.683469
H    -0.548633  2.197213  2.346205
H    0.807355  0.263463  2.725114
C    -0.852928  -1.088730  3.124357
C    -2.332656  -1.225188  2.897547
C    -3.322666  -0.623433  3.663116
C    -3.006810  -1.870690  1.784884
N    -4.556506  -0.783038  3.045601
C    -4.401910  -1.590004  1.912764
C    -2.570043  -2.671284  0.704976
C    -5.360639  -2.069590  1.008181
C    -3.516310  -3.152262  -0.184008
C    -4.891150  -2.852956  -0.037332
H    -0.642892  -0.969689  4.196371
H    -0.313015  -1.989960  2.806143
H    -3.248420  -0.102220  4.613640
H    -5.446391  -0.627272  3.515077
H    -1.518934  -2.935349  0.592445
H    -6.423979  -1.869965  1.136548
H    -3.203119  -3.790851  -1.008656
H    -5.602045  -3.264058  -0.752770
O    0.815283  -0.621095  0.403224
H    0.746872  -0.743177  -0.569457
Ca    -3.123657  0.769488  1.372066
