28
Energy: -37222.4242389 eV PBE+vdW (tier 2 basis)
N    0.917954  1.110349  -0.078621
C    0.451229  0.533419  1.184252
C    1.642043  0.196231  2.070092
O    1.948028  0.986283  3.038878
H    0.957765  2.127380  -0.059494
H    1.816517  0.750263  -0.396553
H    -0.089385  1.319004  1.725665
C    -0.550723  -0.640463  0.963961
C    -0.396545  -1.385834  -0.383656
C    0.556036  -2.520982  -0.429375
C    -1.642966  -1.993559  -0.978983
N    -0.010710  -3.560428  -0.988762
C    -1.353729  -3.316262  -1.353097
C    -2.911841  -1.487620  -1.228305
C    -2.259972  -4.173681  -1.966813
C    -3.848084  -2.331050  -1.839277
C    -3.529851  -3.648404  -2.203115
H    -1.553140  -0.195227  0.949236
H    -0.539757  -1.340579  1.809361
H    1.585521  -2.544484  -0.081914
H    0.463328  -4.449521  -1.157198
H    -3.182762  -0.465362  -0.966617
H    -2.000747  -5.192686  -2.250713
H    -4.849974  -1.954567  -2.040691
H    -4.285649  -4.270802  -2.678970
O    2.395255  -0.831632  1.841932
H    -0.001074  -0.602043  -1.079449
Ca    3.660232  -0.202743  3.526226
