32
Energy: -570098.740432 eV PBE+vdW (tier 2 basis)
C    0.254993  -0.010027  0.194760
C    0.125040  0.273768  1.646905
O    1.195700  0.349590  2.350205
H    0.776308  0.815071  -0.312002
H    -0.709805  -0.221975  -0.276267
H    0.907578  -0.891261  0.082254
N    -1.069490  0.420845  2.263072
C    -2.219789  1.236884  1.849646
C    -1.839544  2.701359  2.152410
O    -1.145229  3.033098  3.194718
H    -1.048109  0.238871  3.269931
H    -2.374309  1.113447  0.769991
C    -3.455256  0.716272  2.628780
C    -4.832332  1.364440  2.365995
C    -5.931819  0.333691  2.657549
C    -5.059144  2.639911  3.189055
H    -3.229959  0.771459  3.708347
H    -3.503865  -0.352404  2.369686
H    -4.904413  1.607726  1.290434
H    -5.887669  -0.006521  3.703328
H    -5.848848  -0.549750  2.010893
H    -6.924132  0.773271  2.498866
H    -5.115452  2.398911  4.260493
H    -6.011205  3.111050  2.914382
H    -4.274947  3.400997  3.073890
N    -2.243054  3.705331  1.388298
C    -3.215701  3.732706  0.299609
H    -1.901492  4.619950  1.700695
H    -2.827040  4.394901  -0.484604
H    -4.169430  4.142993  0.660999
H    -3.385927  2.734645  -0.109354
Hg    0.782141  2.040727  3.781818
