32
Energy: -570099.178123 eV PBE+vdW (tier 2 basis)
C    0.149510  -0.108964  -0.271331
C    -0.329678  -0.160559  1.137509
O    0.010054  -1.060307  1.965022
H    1.221955  0.149918  -0.272227
H    -0.377783  0.633330  -0.879650
H    0.050584  -1.101251  -0.729665
N    -1.185448  0.788156  1.574724
C    -1.771084  0.851868  2.880871
C    -3.278432  1.239669  2.638184
O    -3.542201  1.900609  1.641524
H    -1.638299  1.405393  0.886158
H    -1.658670  -0.116838  3.381106
C    -1.203020  2.020846  3.778927
C    0.240865  1.814706  4.289410
C    0.451205  0.616681  5.206025
C    1.354180  1.994325  3.272363
H    -1.874071  2.104649  4.643621
H    -1.283894  2.957531  3.210535
H    0.308495  2.717481  4.948856
H    1.416815  0.682876  5.723030
H    0.468174  -0.328225  4.626634
H    -0.329438  0.522752  5.971631
H    2.304645  2.234800  3.769869
H    1.152426  2.777633  2.532337
H    1.570281  1.039695  2.732263
N    -4.167224  0.826796  3.561564
C    -5.603699  1.003818  3.392127
H    -3.845677  0.221272  4.314199
H    -6.063736  1.069107  4.385335
H    -6.051795  0.150638  2.858009
H    -5.782415  1.913164  2.806585
Hg    2.245721  -1.504216  2.362457
