32
Energy: -570099.23391 eV PBE+vdW (tier 2 basis)
C    -0.648848  1.148523  -0.011010
C    -0.394179  0.722482  1.401823
O    0.708840  1.138498  1.904002
H    -0.852408  2.230117  -0.018210
H    -1.504186  0.619591  -0.448183
H    0.249126  0.980345  -0.617345
N    -1.313968  -0.031971  2.021653
C    -1.419379  -0.299758  3.460683
C    -0.522000  -1.472187  3.947125
O    0.462369  -1.185548  4.744404
H    -2.152562  -0.243185  1.477154
H    -0.961500  0.565454  3.975147
C    -2.872994  -0.242824  4.005376
C    -4.027495  -1.126562  3.485317
C    -5.276744  -0.757861  4.303894
C    -4.320595  -0.975343  1.984223
H    -3.170017  0.812115  3.879553
H    -2.777822  -0.387834  5.092772
H    -3.802738  -2.180149  3.704537
H    -6.117067  -1.405029  4.024409
H    -5.582749  0.281911  4.121095
H    -5.108872  -0.878987  5.381782
H    -5.257764  -1.484103  1.725889
H    -3.565018  -1.435780  1.321041
H    -4.450484  0.080541  1.699887
N    -0.672893  -2.747782  3.655485
C    -1.665855  -3.458368  2.853461
H    0.034871  -3.343013  4.097674
H    -2.330139  -4.040269  3.505076
H    -1.124973  -4.154532  2.199470
H    -2.251472  -2.768414  2.246608
Hg    1.415828  0.610227  3.916178
