32
Energy: -570099.109517 eV PBE+vdW (tier 2 basis)
C    0.321983  -0.100518  0.584232
C    0.221454  0.382297  1.987077
O    1.178389  0.726968  2.661387
H    1.295570  0.167195  0.162533
H    -0.500564  0.266364  -0.042946
H    0.241045  -1.202954  0.604678
N    -1.102500  0.397587  2.656738
C    -2.138829  1.367529  2.226113
C    -1.937588  2.763582  2.881077
O    -1.389717  2.927041  4.018329
H    -1.527668  -0.544806  2.646402
H    -2.047843  1.516824  1.137631
C    -3.545175  0.842063  2.585691
C    -4.127721  -0.256051  1.662829
C    -3.292953  -1.543284  1.615007
C    -5.562223  -0.554785  2.122326
H    -4.237243  1.695407  2.576141
H    -3.524638  0.494028  3.633211
H    -4.176317  0.160031  0.641628
H    -3.837104  -2.328711  1.073647
H    -3.102188  -1.952562  2.622573
H    -2.342340  -1.437659  1.065588
H    -6.037960  -1.270495  1.440843
H    -6.182421  0.350728  2.137170
H    -5.576932  -0.994705  3.129692
N    -2.428066  3.829414  2.267872
C    -3.224568  3.926151  1.041463
H    -2.321436  4.697557  2.797736
H    -2.910663  4.827858  0.503649
H    -4.291284  4.011345  1.287306
H    -3.071620  3.064023  0.386865
Hg    -0.116284  1.213120  4.704524
