32
Energy: -570098.820945 eV PBE+vdW (tier 2 basis)
C    0.057597  -0.332437  0.155391
C    -0.262946  -0.180225  1.610827
O    0.748680  -0.119819  2.390822
H    -0.654641  0.230991  -0.464160
H    0.002275  -1.399145  -0.109617
H    1.076385  0.013452  -0.044925
N    -1.515133  -0.144914  2.064540
C    -2.766253  -0.083817  1.320842
C    -3.723652  0.656288  2.287499
O    -3.333348  1.009749  3.399436
H    -1.676276  0.108855  3.053234
H    -2.646961  0.602461  0.457214
C    -3.230613  -1.439907  0.744121
C    -3.440658  -2.596345  1.768327
C    -4.572829  -2.343829  2.757214
C    -3.647031  -3.887134  0.977770
H    -2.488421  -1.755478  -0.001298
H    -4.160735  -1.283289  0.173770
H    -2.490305  -2.670636  2.335167
H    -4.768230  -3.240875  3.363611
H    -5.519421  -2.131155  2.231659
H    -4.365926  -1.534183  3.468277
H    -3.722941  -4.741202  1.668599
H    -2.824409  -4.081379  0.278159
H    -4.585974  -3.878699  0.401452
N    -4.978546  0.918265  1.827682
C    -5.988070  1.582114  2.618411
H    -5.249259  0.557403  0.913281
H    -6.594801  2.222488  1.963710
H    -5.508101  2.151280  3.420959
H    -6.671826  0.843622  3.077904
Hg    0.959176  0.834731  4.434299
