32
Energy: -570098.747246 eV PBE+vdW (tier 2 basis)
C    0.547256  0.266282  1.311505
C    -0.403858  0.627453  2.396830
O    -0.039443  1.414859  3.323275
H    0.047256  0.183291  0.342046
H    1.050586  -0.685053  1.539588
H    1.320662  1.042310  1.262618
N    -1.723138  0.231756  2.418465
C    -2.208243  -1.116498  2.259730
C    -1.477677  -1.943925  3.432238
O    -0.368728  -1.533535  3.823054
H    -2.263921  0.791588  3.083201
H    -3.275687  -1.079797  2.515471
C    -2.043491  -1.841975  0.909423
C    -3.019191  -1.296657  -0.182945
C    -4.496769  -1.502488  0.144824
C    -2.696467  0.113419  -0.637797
H    -2.278339  -2.903352  1.073256
H    -1.001397  -1.808180  0.570626
H    -2.781103  -1.986468  -1.024384
H    -5.109396  -1.354622  -0.754538
H    -4.869825  -0.771686  0.879721
H    -4.705593  -2.517317  0.509700
H    -3.391417  0.431568  -1.429911
H    -1.674624  0.210382  -1.026437
H    -2.829533  0.863402  0.166574
N    -2.141770  -2.983023  3.925142
C    -1.733903  -3.741184  5.107071
H    -3.021617  -3.247301  3.482870
H    -0.662662  -3.602027  5.274315
H    -1.954389  -4.801058  4.928915
H    -2.301674  -3.414514  5.990585
Hg    0.310727  0.366046  5.372892
