32
Energy: -570099.004215 eV PBE+vdW (tier 2 basis)
C    -0.765238  -1.533256  -1.560696
C    -0.840714  -0.321147  -0.690924
O    0.150621  0.508014  -0.846267
H    -0.925645  -1.236962  -2.607477
H    -1.509971  -2.283477  -1.268739
H    0.240879  -1.968212  -1.495436
N    -1.844873  -0.181781  0.155979
C    -2.146242  0.858750  1.139716
C    -3.133572  0.146817  2.126009
O    -3.854625  -0.732032  1.658903
H    -2.574262  -0.914058  0.177063
H    -1.222211  1.139420  1.671322
C    -2.880743  2.071605  0.479083
C    -2.839802  3.424237  1.215313
C    -1.437919  3.976307  1.451160
C    -3.737916  4.440963  0.506104
H    -3.927447  1.773093  0.319451
H    -2.503303  2.229343  -0.553870
H    -3.233348  3.256221  2.243046
H    -1.388460  5.031734  1.773444
H    -0.903394  4.149977  0.411040
H    -0.802536  3.403782  2.141877
H    -3.750132  5.400843  1.035792
H    -4.772008  4.078588  0.452064
H    -3.401049  4.626202  -0.525444
N    -3.176398  0.586757  3.396340
C    -4.072916  0.005269  4.397785
H    -2.439695  1.202859  3.727975
H    -4.330006  0.775853  5.132029
H    -3.587561  -0.834855  4.914480
H    -4.974758  -0.360819  3.898022
Hg    0.033067  2.545331  -0.289589
