32
Energy: -570099.026548 eV PBE+vdW (tier 2 basis)
C    0.348987  -0.301550  0.420481
C    -0.267276  -0.861898  1.657564
O    -0.483655  -2.079324  1.851295
H    0.419248  0.791038  0.423341
H    -0.232371  -0.624477  -0.453779
H    1.364485  -0.717233  0.313078
N    -0.646851  0.025250  2.639390
C    -1.382892  -0.330858  3.787258
C    -3.009011  -0.059950  3.520200
O    -3.272624  0.886298  2.811228
H    -0.641078  1.015179  2.379449
H    -1.300548  -1.422713  3.913999
C    -1.092926  0.506632  5.035112
C    0.279142  0.085153  5.695436
C    1.473589  0.554669  4.890940
C    0.235520  0.701734  7.117710
H    -1.898621  0.355537  5.763293
H    -1.072200  1.578675  4.791276
H    0.298750  -1.011270  5.798911
H    1.497172  1.647878  4.788816
H    1.529921  0.108516  3.883482
H    2.405699  0.238144  5.385974
H    1.165444  0.405786  7.628950
H    -0.608842  0.326083  7.706491
H    0.190553  1.797271  7.081216
N    -3.842515  -0.911171  4.122855
C    -3.538081  -2.081117  4.946269
H    -4.819548  -0.769559  3.858959
H    -3.183452  -2.925224  4.338943
H    -4.469855  -2.386532  5.434293
H    -2.814187  -1.843068  5.732969
Hg    0.970608  -3.856086  0.922825
