32
Energy: -570098.769624 eV PBE+vdW (tier 2 basis)
C    0.125303  0.235691  1.266021
C    -0.809975  0.516086  2.388196
O    -0.465174  1.285669  3.330736
H    -0.398849  0.162264  0.308297
H    0.675644  -0.699741  1.447287
H    0.862356  1.046534  1.224193
N    -2.110755  0.049026  2.429931
C    -2.529315  -1.314864  2.255721
C    -1.769349  -2.111320  3.447530
O    -0.654267  -1.678382  3.787264
H    -2.660607  0.565636  3.122176
H    -3.601320  -1.334334  2.501747
C    -2.305992  -2.037698  0.917552
C    -3.330936  -1.572104  -0.161369
C    -3.149659  -0.126942  -0.583762
C    -3.191341  -2.557462  -1.356102
H    -2.462053  -3.111853  1.092389
H    -1.271282  -1.932719  0.569237
H    -4.347796  -1.703685  0.246812
H    -3.955423  0.172940  -1.270224
H    -2.188379  0.034390  -1.092084
H    -3.214344  0.592297  0.254258
H    -3.937008  -2.278178  -2.113894
H    -3.381167  -3.593269  -1.052071
H    -2.192814  -2.494230  -1.807323
N    -2.422011  -3.129378  3.990545
C    -1.978570  -3.851645  5.184602
H    -3.314850  -3.404560  3.583116
H    -0.896945  -3.737057  5.295543
H    -2.233668  -4.910773  5.058629
H    -2.494523  -3.474329  6.079121
Hg    0.003504  0.198963  5.370070
