32
Energy: -570098.861297 eV PBE+vdW (tier 2 basis)
C    -0.017671  1.029221  0.492528
C    -0.364401  0.207471  1.689688
O    0.574343  0.160385  2.594077
H    0.046076  2.087263  0.785016
H    -0.759129  0.907595  -0.306188
H    0.973270  0.733851  0.122061
N    -1.529772  -0.409663  1.750194
C    -2.101218  -1.307025  2.758729
C    -3.220093  -2.062731  1.960349
O    -3.790265  -1.405599  1.088534
H    -2.201988  -0.270704  0.976960
H    -1.325073  -2.008689  3.101846
C    -2.778441  -0.493938  3.913299
C    -2.975496  -1.174427  5.282145
C    -1.690564  -1.664284  5.944051
C    -3.771191  -0.255463  6.214324
H    -3.752307  -0.147084  3.536940
H    -2.224656  0.455651  4.078864
H    -3.559235  -2.104495  5.116806
H    -1.780144  -1.949918  7.008364
H    -0.970190  -0.746245  6.156387
H    -1.168059  -2.491600  5.442163
H    -3.240553  0.691328  6.398016
H    -3.956345  -0.733921  7.183408
H    -4.745852  -0.005786  5.777316
N    -3.561388  -3.321207  2.285420
C    -2.839716  -4.318165  3.069772
H    -4.328822  -3.675084  1.710446
H    -3.562866  -4.932401  3.618849
H    -2.174541  -3.845569  3.798470
H    -2.245109  -4.975714  2.420501
Hg    0.150158  -0.334240  4.593408
