32
Energy: -570099.089391 eV PBE+vdW (tier 2 basis)
C    0.065166  -1.294638  1.399160
C    -0.110864  -0.463229  2.617782
O    0.767539  -0.245815  3.437348
H    -0.365975  -0.810431  0.511812
H    -0.488288  -2.240096  1.540504
H    1.123794  -1.521496  1.243979
N    -1.443714  0.110643  2.920129
C    -2.001634  1.201301  2.084533
C    -1.261614  2.545161  2.312033
O    -0.633543  2.826874  3.378775
H    -2.146624  -0.633271  3.011301
H    -1.835682  0.954294  1.023495
C    -3.535658  1.327143  2.320183
C    -4.118780  1.079656  3.732576
C    -3.638200  2.021051  4.839317
C    -5.657992  1.192423  3.639051
H    -4.021033  0.620835  1.631003
H    -3.844331  2.326141  1.979906
H    -3.907417  0.039685  4.039069
H    -4.293743  1.985786  5.719123
H    -3.520523  3.066119  4.525522
H    -2.634616  1.704967  5.275514
H    -6.127444  0.915957  4.590325
H    -6.052669  0.518963  2.866416
H    -5.964807  2.217942  3.393381
N    -1.305726  3.455326  1.349001
C    -1.977199  3.423309  0.045904
H    -0.834871  4.330042  1.588524
H    -1.366587  3.991857  -0.663231
H    -2.970545  3.886001  0.110041
H    -2.078547  2.402356  -0.334525
Hg    -0.590108  1.177982  4.925143
