32
Energy: -570099.048331 eV PBE+vdW (tier 2 basis)
C    0.736192  -0.307160  0.320674
C    0.415255  -0.496732  1.762366
O    1.267773  -0.859720  2.632883
H    1.376604  0.584860  0.213004
H    -0.152661  -0.161381  -0.302005
H    1.307206  -1.169875  -0.045698
N    -0.846904  -0.294698  2.186564
C    -1.325929  -0.483433  3.528652
C    -2.739178  -1.145196  3.358352
O    -3.338276  -0.914293  2.311068
H    -1.602129  -0.207207  1.490576
H    -0.621664  -1.112701  4.082372
C    -1.608821  0.869015  4.291254
C    -0.358659  1.645220  4.757866
C    0.539654  0.908432  5.743260
C    0.414235  2.406288  3.694322
H    -2.210285  0.609897  5.172730
H    -2.238482  1.498211  3.647323
H    -0.870533  2.446385  5.350176
H    1.256808  1.594597  6.211044
H    1.135085  0.127455  5.231094
H    -0.023764  0.420579  6.549259
H    1.004636  3.218331  4.141436
H    -0.220045  2.837171  2.910756
H    1.184361  1.753640  3.208380
N    -3.240476  -1.903374  4.354537
C    -2.583223  -2.396970  5.554544
H    -4.138768  -2.331166  4.115045
H    -2.124470  -3.383020  5.381838
H    -3.346516  -2.515805  6.334447
H    -1.822200  -1.696395  5.910547
Hg    3.261785  0.272391  2.842645
