32
Energy: -570099.086057 eV PBE+vdW (tier 2 basis)
C    0.194034  -0.307421  0.095781
C    0.210935  0.317852  1.444300
O    1.204329  0.778325  1.982401
H    -0.673867  0.013801  -0.495872
H    0.096508  -1.400456  0.229632
H    1.131028  -0.099278  -0.429076
N    -1.045052  0.351185  2.233678
C    -2.139119  1.285353  1.859121
C    -1.809523  2.739141  2.295137
O    -1.229940  3.025302  3.391055
H    -1.440578  -0.592186  2.346900
H    -2.230255  1.305291  0.758708
C    -3.453168  0.758051  2.479839
C    -4.735893  1.581170  2.204572
C    -5.939618  0.631830  2.108029
C    -4.980402  2.655314  3.272823
H    -3.311270  0.647273  3.568043
H    -3.586154  -0.255680  2.066788
H    -4.631173  2.066102  1.214928
H    -5.827727  -0.090310  1.288486
H    -6.860882  1.198953  1.928703
H    -6.075881  0.072231  3.044367
H    -4.127424  3.328927  3.435926
H    -5.211012  2.187447  4.240431
H    -5.841300  3.278342  3.001855
N    -2.230365  3.703801  1.497842
C    -2.147307  5.135458  1.800971
H    -2.784209  3.430007  0.686993
H    -2.104260  5.685304  0.855909
H    -1.251130  5.332213  2.396640
H    -3.034337  5.454244  2.366075
Hg    0.100608  1.371080  4.119236
