32
Energy: -570099.473083 eV PBE+vdW (tier 2 basis)
C    -0.292371  -1.816347  0.091284
C    -0.425431  -1.011260  1.345750
O    0.216394  0.097512  1.351355
H    -0.841368  -1.299866  -0.711368
H    -0.699691  -2.828040  0.205721
H    0.760544  -1.863768  -0.210636
N    -1.191160  -1.489258  2.341266
C    -1.795097  -0.754219  3.467745
C    -0.913921  -0.744414  4.743442
O    -0.236360  0.324077  5.030204
H    -1.620180  -2.391901  2.141054
H    -1.842935  0.311226  3.176491
C    -3.262131  -1.163579  3.670597
C    -4.209337  -0.658908  2.552352
C    -5.622788  -1.179879  2.842375
C    -4.196540  0.865944  2.405500
H    -3.594394  -0.746897  4.635117
H    -3.345818  -2.257028  3.753241
H    -3.876654  -1.104930  1.597277
H    -6.305458  -0.901680  2.030385
H    -6.023194  -0.750183  3.771541
H    -5.646516  -2.273944  2.934820
H    -4.926807  1.178661  1.649069
H    -3.228667  1.272094  2.066338
H    -4.470873  1.364791  3.346547
N    -0.839277  -1.732302  5.611130
C    -1.553898  -3.012783  5.665415
H    -0.227572  -1.532248  6.407339
H    -0.955387  -3.692663  6.280110
H    -1.659142  -3.448289  4.668394
H    -2.539172  -2.890473  6.133045
Hg    0.381060  1.275389  3.174211
