32
Energy: -570099.470506 eV PBE+vdW (tier 2 basis)
C    -0.931231  -0.167015  -0.246893
C    -0.511984  -0.280170  1.186519
O    0.687211  -0.690677  1.368375
H    -1.922759  0.285363  -0.363291
H    -0.949001  -1.177883  -0.682304
H    -0.183741  0.411918  -0.803238
N    -1.404036  0.042611  2.137861
C    -1.487013  -0.271470  3.599594
C    -0.776113  0.815653  4.444584
O    0.484421  0.791228  4.705384
H    -2.279241  0.391152  1.753289
H    -2.557934  -0.168418  3.814955
C    -1.130611  -1.730180  3.958007
C    -1.842860  -2.298930  5.203521
C    -1.521152  -3.790885  5.332337
C    -1.528604  -1.541589  6.497089
H    -0.037139  -1.888123  4.132623
H    -1.363342  -2.349160  3.079567
H    -2.927166  -2.203107  4.996721
H    -2.101688  -4.235172  6.149864
H    -0.458277  -3.953204  5.567037
H    -1.760718  -4.346728  4.416583
H    -2.021995  -2.026874  7.347748
H    -1.879945  -0.499836  6.493580
H    -0.448678  -1.539860  6.710775
N    -1.471881  1.816873  4.949269
C    -2.926054  2.034034  4.929150
H    -0.917517  2.485360  5.489261
H    -3.120837  2.993664  5.416259
H    -3.452223  1.250911  5.490099
H    -3.304457  2.093310  3.902220
Hg    1.587230  -0.488197  3.332762
