32
Energy: -570098.83048 eV PBE+vdW (tier 2 basis)
C    -1.059137  0.749226  -0.557470
C    -0.754098  0.885887  0.911156
O    0.193842  1.716306  1.157755
H    -2.050514  1.182948  -0.758149
H    -1.051178  -0.308712  -0.851356
H    -0.315607  1.291864  -1.148195
N    -1.417469  0.215056  1.833728
C    -2.517363  -0.742242  1.647340
C    -3.305196  -0.655825  2.968249
O    -2.766919  -0.221864  3.983348
H    -1.242481  0.386087  2.834751
H    -3.138601  -0.425053  0.798431
C    -1.977095  -2.182995  1.443147
C    -3.047644  -3.269954  1.238733
C    -3.910431  -3.074761  -0.011617
C    -2.432850  -4.661505  1.315891
H    -1.354064  -2.431499  2.315833
H    -1.302604  -2.180021  0.571862
H    -3.741712  -3.203890  2.121898
H    -4.677650  -3.854283  -0.089029
H    -3.284095  -3.148919  -0.915904
H    -4.425671  -2.102701  -0.058338
H    -3.194483  -5.444888  1.216256
H    -1.878091  -4.825304  2.248890
H    -1.717651  -4.812062  0.484643
N    -4.589932  -1.137692  2.971966
C    -5.413629  -1.186168  4.157896
H    -5.029479  -1.352046  2.076404
H    -6.109835  -0.325636  4.170691
H    -4.782729  -1.141193  5.049752
H    -6.029839  -2.095806  4.139998
Hg    1.025154  2.490650  3.099609
