32
Energy: -570098.8476 eV PBE+vdW (tier 2 basis)
C    0.108350  1.172297  -0.199946
C    0.168993  0.739915  1.219030
O    1.312280  0.468171  1.725887
H    0.740071  2.055975  -0.362902
H    -0.918174  1.337537  -0.541604
H    0.551717  0.365377  -0.809154
N    -0.943586  0.580222  1.985705
C    -2.078269  1.485529  2.175209
C    -1.649025  2.572642  3.196522
O    -0.803275  2.382200  4.153017
H    -0.865448  -0.152478  2.696887
H    -2.296141  1.987024  1.221006
C    -3.297382  0.640176  2.626030
C    -4.698219  1.294326  2.713594
C    -4.988261  2.005568  4.043680
C    -5.049328  2.145743  1.487838
H    -3.053631  0.166949  3.592183
H    -3.345042  -0.168586  1.880039
H    -5.374342  0.424948  2.686316
H    -6.055491  2.252203  4.106507
H    -4.446756  2.952630  4.171615
H    -4.751757  1.365112  4.903695
H    -6.111860  2.416528  1.502619
H    -4.863282  1.615541  0.543085
H    -4.503386  3.106370  1.440190
N    -2.244881  3.747549  3.121103
C    -2.040973  4.875868  4.028023
H    -3.025163  3.817422  2.462445
H    -2.203231  5.802221  3.467209
H    -1.028442  4.843652  4.439375
H    -2.764424  4.828139  4.855530
Hg    1.030059  1.164078  3.852075
