32
Energy: -570099.55935 eV PBE+vdW (tier 2 basis)
C    2.080911  -0.449451  0.709709
C    1.353035  0.583023  1.508278
O    1.280543  1.745121  0.960298
H    1.488063  -0.667484  -0.192876
H    2.225149  -1.380831  1.269149
H    3.045669  -0.050065  0.374204
N    0.838773  0.239360  2.699846
C    -0.311997  0.804530  3.454754
C    0.122215  1.746842  4.612362
O    0.441972  2.986246  4.397334
H    1.050059  -0.720240  2.977320
H    -0.883725  1.455036  2.767554
C    -1.257461  -0.339517  3.869930
C    -0.612671  -1.562497  4.596229
C    -1.449863  -1.964935  5.820385
C    -0.439811  -2.758934  3.646327
H    -1.764193  -0.682625  2.956669
H    -2.050683  0.113077  4.483504
H    0.397583  -1.287294  4.963275
H    -0.998835  -2.819609  6.338420
H    -2.466190  -2.253805  5.519631
H    -1.555017  -1.151765  6.557361
H    0.059848  -3.592177  4.154471
H    0.149582  -2.527011  2.743951
H    -1.417854  -3.117686  3.296778
N    0.110662  1.323035  5.852238
C    0.454063  2.135966  7.027156
H    -0.218521  0.370950  6.016409
H    -0.422704  2.711845  7.351812
H    1.267012  2.824238  6.777608
H    0.764235  1.461562  7.830165
Hg    0.788120  3.332429  2.312132
