32
Energy: -570099.44144 eV PBE+vdW (tier 2 basis)
C    -0.698959  1.556621  -0.044113
C    -1.075677  1.039329  1.308749
O    -1.581328  1.904275  2.104937
H    -1.602537  1.552704  -0.674891
H    0.062178  0.924653  -0.519626
H    -0.340661  2.588378  0.029108
N    -0.881460  -0.264399  1.571029
C    -1.523107  -1.099442  2.602001
C    -0.721234  -1.129107  3.931067
O    -1.140470  -0.428670  4.936608
H    -0.488448  -0.789777  0.791124
H    -2.476651  -0.612667  2.883729
C    -1.919171  -2.483161  2.048385
C    -3.300344  -2.530162  1.348575
C    -3.420684  -1.582873  0.148533
C    -3.586773  -3.980642  0.940851
H    -1.942935  -3.191529  2.889924
H    -1.139047  -2.846449  1.359213
H    -4.051594  -2.234845  2.102753
H    -4.385428  -1.736281  -0.350863
H    -2.640658  -1.777421  -0.603966
H    -3.389182  -0.517868  0.424411
H    -4.595162  -4.063171  0.517386
H    -3.531157  -4.666683  1.796246
H    -2.879177  -4.329528  0.174999
N    0.349129  -1.869791  4.135592
C    1.001028  -2.859374  3.271740
H    0.734089  -1.782867  5.080264
H    0.532283  -3.845459  3.385533
H    2.046965  -2.929272  3.587889
H    0.973079  -2.549368  2.224343
Hg    -2.031920  1.414545  4.183679
