32
Energy: -570099.407886 eV PBE+vdW (tier 2 basis)
C    -0.007327  1.012369  0.255746
C    0.020559  0.698007  1.718823
O    0.930269  1.301971  2.388521
H    -0.373710  2.042867  0.128573
H    -0.663783  0.330917  -0.298854
H    1.009481  0.973072  -0.152338
N    -0.889421  -0.157847  2.213922
C    -1.286348  -0.337011  3.622749
C    -0.430402  -1.410705  4.339848
O    0.462831  -1.029696  5.200056
H    -1.541076  -0.526523  1.522501
H    -1.036838  0.600339  4.151387
C    -2.819395  -0.445899  3.762305
C    -3.370069  -0.208278  5.190938
C    -3.127165  -1.376057  6.154562
C    -2.909069  1.128196  5.785142
H    -3.186818  -1.402615  3.368145
H    -3.221914  0.341306  3.104602
H    -4.458752  -0.136261  5.037664
H    -3.685491  -1.218330  7.085480
H    -2.070351  -1.472195  6.448183
H    -3.468640  -2.334176  5.739511
H    -1.848663  1.109701  6.092745
H    -3.475469  1.353092  6.696973
H    -3.063355  1.970496  5.095489
N    -0.547947  -2.709424  4.154832
C    -1.516734  -3.481838  3.373383
H    0.102265  -3.262248  4.720700
H    -2.389312  -3.739456  3.987765
H    -1.021590  -4.407935  3.061428
H    -1.833266  -2.938167  2.480760
Hg    1.333034  0.838614  4.486869
