32
Energy: -570098.976465 eV PBE+vdW (tier 2 basis)
C    -0.521055  0.585420  -0.378924
C    -0.171784  0.124147  0.995994
O    1.059488  -0.304244  1.116158
H    0.081700  1.468931  -0.632353
H    -1.587252  0.825681  -0.463023
H    -0.262721  -0.201439  -1.100828
N    -1.073681  0.156258  1.954497
C    -1.093182  -0.332806  3.338224
C    -2.626682  -0.713920  3.508192
O    -3.422795  -0.022076  2.876078
H    -2.029312  0.483917  1.713113
H    -0.495068  -1.257310  3.425066
C    -0.724101  0.780862  4.393480
C    0.188875  0.400573  5.596094
C    -0.175210  -0.902422  6.309745
C    1.684808  0.534488  5.357005
H    -1.671460  1.154946  4.803351
H    -0.297867  1.644950  3.860581
H    0.023526  1.226961  6.318542
H    0.409384  -1.028915  7.229438
H    0.023224  -1.789074  5.684262
H    -1.233465  -0.908320  6.596107
H    2.312041  0.386155  6.258661
H    2.015899  1.470464  4.884264
H    2.199835  -0.438573  4.861312
N    -2.926560  -1.707974  4.343171
C    -4.307721  -2.128858  4.616734
H    -2.176352  -2.260960  4.743057
H    -4.399360  -2.389419  5.676140
H    -4.571317  -2.998482  4.002129
H    -4.982475  -1.302043  4.379935
Hg    1.882662  -0.415275  3.008959
