37
Energy: -108387.127725 eV PBE+vdW (tier 2 basis)
C    -0.679011  -0.235239  0.186759
C    -0.232804  0.384876  1.472165
O    0.956136  0.804713  1.602994
H    -0.692821  0.553969  -0.581405
H    -1.674289  -0.689492  0.235058
H    0.048960  -0.984092  -0.148576
N    -1.136169  0.476683  2.465876
C    -1.145706  1.308701  3.682205
C    0.114640  1.217120  4.558626
O    1.001566  0.320835  4.397392
H    -2.056629  0.122137  2.218143
H    -1.205325  2.361862  3.355800
C    -2.457342  1.018694  4.464488
C    -2.605730  -0.366546  5.119013
C    -3.973280  -0.472186  5.817836
N    -4.165697  -1.783794  6.442098
C    -5.360461  -2.316131  6.779390
N    -5.418625  -3.587038  7.191670
N    -6.482373  -1.595734  6.677679
H    -3.283874  1.194049  3.756776
H    -2.573618  1.798128  5.227962
H    -1.801873  -0.523772  5.856324
H    -2.518294  -1.172458  4.374970
H    -4.774551  -0.330044  5.077636
H    -4.064675  0.329010  6.571103
H    -3.347323  -2.245461  6.827004
H    -4.652263  -4.233145  7.043078
H    -6.248997  -3.958160  7.641468
H    -7.391927  -2.035601  6.775556
H    -6.469734  -0.583249  6.673797
N    0.276059  2.132230  5.513220
C    -0.516734  3.320566  5.852721
H    1.092748  1.967267  6.102205
H    -1.239260  3.100028  6.648631
H    -1.038483  3.715071  4.975324
H    0.168652  4.093682  6.215791
Sr    2.748186  0.180189  2.861225
