37
Energy: -108387.442614 eV PBE+vdW (tier 2 basis)
C    1.105703  -0.267231  0.479085
C    0.258475  -0.518471  1.685735
O    0.146262  -1.690649  2.156494
H    0.749518  -0.905161  -0.341951
H    2.139584  -0.575122  0.688602
H    1.108739  0.776252  0.147502
N    -0.361795  0.537781  2.240819
C    -1.335358  0.614063  3.354189
C    -0.783755  0.105622  4.704277
O    -0.483557  -1.111072  4.902528
H    -0.170008  1.427321  1.787187
H    -1.486613  1.695221  3.479702
C    -2.729183  0.017821  3.020404
C    -3.490079  0.888705  1.996088
C    -5.023282  0.738601  1.967327
N    -5.511072  -0.345614  1.106745
C    -6.719411  -0.359957  0.503626
N    -6.973660  -1.276603  -0.438938
N    -7.654245  0.538025  0.827039
H    -3.297416  -0.015032  3.962999
H    -2.618849  -1.022517  2.681808
H    -3.088368  0.756123  0.980782
H    -3.312977  1.944750  2.251326
H    -5.439209  1.672973  1.567198
H    -5.407423  0.618241  2.994312
H    -4.972225  -1.202496  1.047627
H    -7.918629  -1.440690  -0.770217
H    -6.228738  -1.756076  -0.930255
H    -8.485433  0.652875  0.255734
H    -7.634216  1.044570  1.703855
N    -0.691256  1.002613  5.674079
C    -0.262936  0.719363  7.047772
H    -0.912130  1.971358  5.456351
H    -0.745253  1.437186  7.718165
H    0.826136  0.825882  7.137467
H    -0.559255  -0.296120  7.324340
Sr    0.395913  -3.017538  3.994197
