37
Energy: -108386.682309 eV PBE+vdW (tier 2 basis)
C    -0.541594  -1.730847  0.577599
C    -1.369564  -1.896853  1.807504
O    -1.507543  -3.041007  2.331620
H    -0.496559  -2.665642  0.010434
H    0.487818  -1.502624  0.900312
H    -0.868978  -0.912339  -0.069686
N    -1.960664  -0.827104  2.412163
C    -2.812566  0.150955  1.702548
C    -3.574520  -0.600321  0.569772
O    -3.795723  -1.848314  0.699162
H    -2.306867  -1.069465  3.340160
H    -3.626748  0.350921  2.420724
C    -2.202668  1.553325  1.451645
C    -0.957492  1.700624  0.566629
C    -0.513056  3.156438  0.334072
N    0.050260  3.780708  1.538676
C    0.247596  5.111515  1.690540
N    0.707555  5.575313  2.857007
N    -0.045843  5.962984  0.703157
H    -1.988529  1.954308  2.453099
H    -3.011133  2.203153  1.075113
H    -1.132249  1.280842  -0.435516
H    -0.115021  1.133228  0.990792
H    -1.372792  3.761511  0.009905
H    0.228900  3.160918  -0.480705
H    0.615769  3.186851  2.139023
H    1.047291  6.527039  2.949886
H    0.726236  5.001440  3.691811
H    -0.101911  5.663260  -0.262574
H    -0.040750  6.965389  0.863870
N    -4.039491  0.095107  -0.451104
C    -4.900133  -0.414460  -1.524345
H    -3.841335  1.092393  -0.462960
H    -4.544261  -0.023844  -2.483760
H    -5.934001  -0.082835  -1.363142
H    -4.862384  -1.505349  -1.536137
Sr    -3.528283  -3.979677  1.658352
