37
Energy: -108385.688529 eV PBE+vdW (tier 2 basis)
C    -0.077485  -0.192259  1.498251
C    -0.492550  0.620099  2.675609
O    0.390332  1.374941  3.261158
H    -0.887951  -0.764962  1.039263
H    0.708018  -0.895642  1.812445
H    0.362236  0.469678  0.739162
N    -1.722846  0.597618  3.163888
C    -2.936053  -0.089249  2.629090
C    -2.725436  -1.617432  2.449345
O    -2.893928  -2.140408  1.342827
H    -1.874371  1.194886  3.976841
H    -3.672794  0.024122  3.438607
C    -3.445628  0.682444  1.387697
C    -4.611927  0.143293  0.526969
C    -5.837859  -0.503954  1.205153
N    -5.795835  -1.966401  1.080058
C    -6.855174  -2.764585  0.884818
N    -6.666221  -4.015930  0.439575
N    -8.098716  -2.331382  1.129887
H    -2.602928  0.831096  0.698386
H    -3.710976  1.684037  1.758413
H    -4.220199  -0.563078  -0.212993
H    -4.968490  1.007474  -0.048396
H    -6.746007  -0.149678  0.700032
H    -5.929668  -0.210659  2.264270
H    -4.862614  -2.380464  1.021149
H    -7.414357  -4.699477  0.455508
H    -5.803032  -4.287774  -0.015170
H    -8.907268  -2.858579  0.819956
H    -8.276338  -1.506219  1.687683
N    -2.400386  -2.336300  3.546040
C    -2.280420  -1.910776  4.937057
H    -2.282617  -3.329892  3.353643
H    -2.408018  -2.787409  5.579693
H    -3.064898  -1.193107  5.209683
H    -1.294892  -1.475169  5.155234
Sr    2.158172  2.555625  3.833619
