37
Energy: -108386.296316 eV PBE+vdW (tier 2 basis)
C    0.126565  -1.117232  0.397571
C    -0.081726  0.064663  1.288634
O    0.855043  0.949263  1.408552
H    0.282899  -0.775744  -0.636238
H    -0.718913  -1.813690  0.399220
H    1.026836  -1.666609  0.707488
N    -1.232150  0.180056  1.938731
C    -1.695937  1.281388  2.798024
C    -1.664830  0.985589  4.322611
O    -2.039599  1.895147  5.068166
H    -1.919670  -0.544013  1.728817
H    -0.991224  2.110115  2.651725
C    -3.100860  1.755600  2.354625
C    -4.280468  0.796886  2.616279
C    -5.016444  0.941643  3.960946
N    -5.718734  2.223122  4.096212
C    -5.621279  3.086263  5.129906
N    -6.643110  3.917490  5.376646
N    -4.520607  3.136971  5.882593
H    -3.043307  1.985469  1.281745
H    -3.279345  2.717074  2.854605
H    -3.979296  -0.261826  2.536873
H    -5.014314  0.931097  1.808805
H    -4.343844  0.827537  4.816730
H    -5.760591  0.135432  4.038139
H    -6.528532  2.352319  3.495665
H    -6.535821  4.716190  5.991751
H    -7.575088  3.737061  5.021347
H    -4.528664  3.647400  6.758010
H    -3.637271  2.705236  5.593559
N    -1.236638  -0.214592  4.747260
C    -1.190181  -0.593541  6.162944
H    -0.977015  -0.917988  4.065098
H    -0.308044  -1.215904  6.344028
H    -2.088009  -1.157773  6.446523
H    -1.129287  0.313658  6.770203
Sr    2.763671  2.020790  1.091429
