37
Energy: -108386.659182 eV PBE+vdW (tier 2 basis)
C    0.151189  1.093073  -0.162910
C    0.125333  0.429732  1.172160
O    1.179656  -0.235962  1.558922
H    0.375909  0.345735  -0.936229
H    0.960079  1.837066  -0.186377
H    -0.788233  1.590364  -0.417302
N    -0.905405  0.485873  1.978547
C    -2.166047  1.242943  1.912645
C    -2.469505  1.439723  3.435652
O    -2.028519  0.585549  4.214446
H    -0.871445  0.043644  2.926259
H    -2.002841  2.205642  1.408806
C    -3.265383  0.414184  1.198675
C    -4.634228  1.107542  1.101648
C    -5.657376  0.238430  0.355334
N    -6.967658  0.898157  0.323991
C    -7.976336  0.602925  -0.517520
N    -7.901966  -0.463842  -1.322416
N    -9.049834  1.400785  -0.566324
H    -3.365715  -0.542791  1.733064
H    -2.899883  0.176685  0.187367
H    -4.539428  2.074831  0.583518
H    -5.015741  1.312363  2.113842
H    -5.736461  -0.745218  0.848397
H    -5.330792  0.076220  -0.682522
H    -7.190020  1.527534  1.089095
H    -8.583747  -0.605928  -2.059918
H    -7.281507  -1.238015  -1.121587
H    -9.040878  2.332116  -0.167350
H    -9.906722  1.105450  -1.021297
N    -3.200208  2.505735  3.785497
C    -3.562568  2.811032  5.172750
H    -3.419940  3.198028  3.076294
H    -4.611682  3.122184  5.219796
H    -2.931169  3.616986  5.567376
H    -3.418922  1.912062  5.777629
Sr    3.038452  -1.186062  2.167895
