37
Energy: -108386.554061 eV PBE+vdW (tier 2 basis)
C    0.054636  -0.187749  0.772892
C    0.074161  0.654954  2.003288
O    1.186675  0.742932  2.678254
H    0.819694  0.171539  0.070528
H    -0.911515  -0.195869  0.262455
H    0.317353  -1.221707  1.037934
N    -0.977411  1.310785  2.434947
C    -2.293418  1.527063  1.807816
C    -2.714406  2.897403  2.411099
O    -2.228663  3.213824  3.506279
H    -0.913429  1.928377  3.271714
H    -2.167406  1.601109  0.720366
C    -3.315537  0.401871  2.122333
C    -3.724539  0.228230  3.602060
C    -5.008378  0.937905  4.054063
N    -6.205669  0.252924  3.541005
C    -7.469545  0.699176  3.687134
N    -8.481731  0.011630  3.145162
N    -7.713028  1.843499  4.337054
H    -2.884084  -0.538525  1.751877
H    -4.201163  0.579934  1.495077
H    -2.923492  0.573548  4.269348
H    -3.828583  -0.845458  3.820095
H    -5.026443  1.980632  3.705035
H    -5.024767  0.949691  5.155972
H    -6.106202  -0.734348  3.322930
H    -8.323200  -0.751225  2.497642
H    -9.446510  0.214395  3.383085
H    -8.647088  2.238236  4.362233
H    -7.036197  2.242362  4.975722
N    -3.608005  3.646595  1.744919
C    -4.104374  3.459821  0.379226
H    -3.802401  4.540777  2.192849
H    -4.882920  4.205719  0.195704
H    -4.557029  2.470717  0.241698
H    -3.313585  3.609391  -0.368421
Sr    3.194844  0.866139  3.519088
