37
Energy: -108386.612558 eV PBE+vdW (tier 2 basis)
C    0.168518  -0.695625  0.662362
C    -0.123731  -0.243599  2.054072
O    0.848964  -0.195286  2.916372
H    0.666450  0.117329  0.111291
H    -0.722125  -0.992341  0.102384
H    0.860514  -1.545867  0.690711
N    -1.332515  0.123405  2.434087
C    -2.583314  0.184876  1.640495
C    -3.374071  1.398850  2.196973
O    -3.807387  1.327822  3.357669
H    -1.455392  0.391768  3.415219
H    -2.317273  0.335044  0.586914
C    -3.411148  -1.099762  1.840067
C    -4.814612  -1.031981  1.187038
C    -5.962086  -1.471836  2.100973
N    -6.163998  -0.525841  3.204531
C    -7.258343  -0.472482  3.976362
N    -8.227826  -1.387733  3.860974
N    -7.385699  0.519861  4.870564
H    -3.497044  -1.262525  2.924192
H    -2.843789  -1.952546  1.443404
H    -4.840391  -1.676693  0.299935
H    -5.034510  -0.017936  0.819555
H    -5.761888  -2.482692  2.494947
H    -6.882010  -1.520564  1.499731
H    -5.401260  0.123188  3.421915
H    -9.107369  -1.288938  4.354638
H    -8.111160  -2.222259  3.301342
H    -8.138495  0.530283  5.548065
H    -6.738248  1.297533  4.884777
N    -3.539069  2.439757  1.370936
C    -4.279718  3.651742  1.724314
H    -3.164826  2.379404  0.428746
H    -4.389371  3.693128  2.811136
H    -5.271586  3.650055  1.254249
H    -3.725821  4.530889  1.378065
Sr    2.762508  -0.226181  3.993608
