37
Energy: -108387.509371 eV PBE+vdW (tier 2 basis)
C    -2.633972  -0.737963  -0.015838
C    -2.139282  -0.774740  1.393945
O    -1.404381  -1.726171  1.790511
H    -1.777275  -0.758225  -0.703427
H    -3.254631  0.133982  -0.246871
H    -3.212456  -1.652779  -0.209352
N    -2.505119  0.232468  2.211778
C    -2.257707  0.416034  3.660682
C    -0.752917  0.559324  3.974894
O    0.015546  -0.452492  3.950192
H    -3.064398  0.957461  1.771282
H    -2.730134  1.378478  3.889480
C    -2.909202  -0.672270  4.547549
C    -4.453292  -0.699189  4.545671
C    -5.109271  0.225852  5.585410
N    -6.567545  0.081244  5.551636
C    -7.410089  0.223941  6.595838
N    -8.674623  -0.193938  6.479277
N    -6.987141  0.756190  7.748599
H    -2.534097  -0.539525  5.574016
H    -2.545186  -1.654417  4.220424
H    -4.776200  -1.727599  4.757457
H    -4.833870  -0.463863  3.538422
H    -4.828579  1.279926  5.416805
H    -4.764692  -0.056691  6.590543
H    -7.001370  -0.069766  4.645859
H    -9.387911  0.090444  7.142772
H    -8.963653  -0.827328  5.742377
H    -7.567793  0.716697  8.580151
H    -6.181993  1.368331  7.788612
N    -0.268860  1.747453  4.305422
C    -0.947883  3.048462  4.381158
H    0.723976  1.742088  4.545300
H    -0.180613  3.818501  4.502959
H    -1.618151  3.097107  5.248515
H    -1.495925  3.266358  3.457699
Sr    0.494688  -2.413381  2.856253
