37
Energy: -108387.207101 eV PBE+vdW (tier 2 basis)
C    1.941416  2.911868  2.304528
C    1.118759  1.828342  2.921895
O    1.650878  0.982864  3.700653
H    2.737908  2.448305  1.704349
H    2.439805  3.487766  3.096256
H    1.370058  3.597062  1.669884
N    -0.193419  1.788931  2.621574
C    -1.217939  0.777462  2.971196
C    -1.413469  0.671605  4.502223
O    -0.595108  0.018955  5.221760
H    -0.510652  2.522834  1.993579
H    -2.144679  1.191264  2.555350
C    -0.966905  -0.595936  2.308129
C    -2.181427  -1.550201  2.361153
C    -3.192029  -1.455839  1.205828
N    -2.682130  -2.101266  -0.012691
C    -3.300891  -2.075757  -1.215526
N    -2.717068  -2.659901  -2.266498
N    -4.466499  -1.437554  -1.367396
H    -0.103843  -1.074667  2.788303
H    -0.667757  -0.407691  1.266993
H    -2.744307  -1.405063  3.295575
H    -1.821771  -2.588127  2.423159
H    -3.426915  -0.406778  0.966147
H    -4.126122  -1.942705  1.530692
H    -2.017051  -2.857810  0.121201
H    -1.753532  -2.972608  -2.238901
H    -3.225125  -2.826142  -3.129136
H    -4.872812  -1.313762  -2.289552
H    -5.078002  -1.254805  -0.581146
N    -2.464743  1.256002  5.060062
C    -3.514631  2.078046  4.441161
H    -2.539288  1.112316  6.068434
H    -4.120380  2.506143  5.245074
H    -4.173817  1.471665  3.807463
H    -3.085264  2.906637  3.866819
Sr    1.663137  -0.232273  5.621758
