37
Energy: -108387.686697 eV PBE+vdW (tier 2 basis)
C    -0.743108  -2.269836  -0.332281
C    -0.572750  -1.567805  0.971602
O    0.570289  -1.189804  1.370178
H    -0.090587  -3.152989  -0.362353
H    -0.405475  -1.601145  -1.137992
H    -1.774742  -2.576168  -0.533976
N    -1.661965  -1.329809  1.725768
C    -1.668618  -0.527679  2.961407
C    -0.930369  -1.290847  4.093630
O    0.284952  -0.975769  4.306802
H    -2.558694  -1.637499  1.355977
H    -1.015888  0.339846  2.782466
C    -3.094647  -0.001493  3.226284
C    -3.240937  0.923214  4.447536
C    -4.698049  1.405087  4.593028
N    -4.908270  2.257097  5.768812
C    -5.539536  3.451204  5.805691
N    -6.091091  3.861953  6.951953
N    -5.608961  4.234721  4.723518
H    -3.802683  -0.838324  3.306031
H    -3.380432  0.552412  2.318100
H    -2.572619  1.792392  4.355476
H    -2.943721  0.395220  5.367955
H    -5.375028  0.539216  4.669247
H    -5.014348  1.957005  3.699388
H    -4.783379  1.811353  6.673368
H    -6.360520  4.830670  7.090513
H    -6.313246  3.216717  7.701974
H    -6.223911  5.041385  4.705197
H    -4.980586  4.123055  3.939038
N    -1.488748  -2.258940  4.806401
C    -2.814907  -2.877321  4.703986
H    -0.869829  -2.649885  5.518317
H    -3.112540  -3.007729  3.659299
H    -3.570728  -2.294941  5.245293
H    -2.756875  -3.869642  5.161649
Sr    2.167543  -0.810920  2.955717
