37
Energy: -108386.987365 eV PBE+vdW (tier 2 basis)
C    -2.586538  -0.304509  -0.875744
C    -1.499207  -0.413389  0.137505
O    -0.379802  -0.925767  -0.158023
H    -3.560229  -0.047500  -0.449304
H    -2.322167  0.427920  -1.653306
H    -2.662995  -1.274466  -1.388332
N    -1.692898  0.028262  1.412296
C    -2.220911  1.361249  1.710742
C    -1.165894  2.395936  1.203681
O    -0.015304  1.982765  0.834790
H    -0.925651  -0.239787  2.031117
H    -3.143517  1.510911  1.129842
C    -2.532766  1.496422  3.218384
C    -3.723098  0.633022  3.673691
C    -4.002019  0.785994  5.178035
N    -5.141425  -0.043055  5.582368
C    -5.913377  0.156836  6.670490
N    -7.038866  -0.550744  6.815336
N    -5.577542  1.071911  7.587155
H    -2.734959  2.552220  3.443077
H    -1.625741  1.239135  3.790082
H    -3.521881  -0.425175  3.444094
H    -4.625500  0.917862  3.111320
H    -4.246647  1.833533  5.407444
H    -3.103401  0.512578  5.756676
H    -5.277483  -0.922275  5.092713
H    -7.457094  -1.054710  6.041828
H    -7.529612  -0.585774  7.702658
H    -6.229019  1.334047  8.319773
H    -4.622811  1.390599  7.696537
N    -1.464245  3.681574  1.131672
C    -2.726291  4.370528  1.420120
H    -0.696257  4.277626  0.817713
H    -2.685052  4.853303  2.404924
H    -3.572165  3.678662  1.379272
H    -2.877756  5.144208  0.659466
Sr    1.477637  0.482638  -0.157827
