37
Energy: -108387.964175 eV PBE+vdW (tier 2 basis)
C    0.987571  -1.504338  2.426520
C    0.461247  -0.116713  2.244276
O    1.248419  0.876106  2.277101
H    1.494401  -1.562887  3.400435
H    1.751300  -1.709048  1.663743
H    0.218233  -2.281755  2.375699
N    -0.861763  0.028062  2.046019
C    -1.688575  1.252978  1.946735
C    -1.325219  2.139008  0.733935
O    -0.223362  2.764492  0.666655
H    -1.383687  -0.843297  2.006401
H    -2.698386  0.864739  1.754360
C    -1.763278  2.072780  3.258751
C    -2.546366  1.346940  4.368711
C    -2.791587  2.235429  5.598934
N    -3.611386  1.525844  6.586706
C    -3.742915  1.860228  7.887080
N    -4.375648  1.026308  8.718664
N    -3.219641  3.000408  8.353441
H    -2.260977  3.025049  3.018160
H    -0.749043  2.324112  3.600339
H    -2.016599  0.435118  4.681750
H    -3.522651  1.031047  3.964406
H    -3.289869  3.168900  5.286205
H    -1.835369  2.501376  6.073400
H    -4.261638  0.828349  6.237283
H    -4.567670  0.063343  8.467234
H    -4.679312  1.327257  9.638852
H    -3.191938  3.186239  9.350772
H    -3.029808  3.785632  7.743250
N    -2.245667  2.253703  -0.210800
C    -2.132301  3.089052  -1.410608
H    -3.099017  1.707862  -0.117113
H    -3.119137  3.500146  -1.646577
H    -1.785512  2.486416  -2.260230
H    -1.430205  3.905240  -1.223795
Sr    2.005358  2.733877  1.194311
