37
Energy: -108386.772885 eV PBE+vdW (tier 2 basis)
C    -0.000399  0.026549  -0.100904
C    0.059530  -0.088761  1.382231
O    1.157057  -0.303055  1.977624
H    0.653609  0.829939  -0.466408
H    -1.011507  0.150888  -0.498459
H    0.416876  -0.908699  -0.508484
N    -1.077067  -0.006347  2.133255
C    -2.008587  1.114643  2.004514
C    -1.407892  2.287725  2.849770
O    -0.201744  2.224552  3.249724
H    -0.912117  -0.295256  3.097999
H    -1.950516  1.463314  0.961328
C    -3.482454  0.713072  2.255726
C    -3.836435  0.210333  3.667028
C    -5.112778  -0.647579  3.755925
N    -6.360667  0.097391  3.552677
C    -7.557858  -0.252775  4.078218
N    -8.595840  0.581148  3.950026
N    -7.706857  -1.402275  4.742672
H    -3.693431  -0.073310  1.515418
H    -4.123076  1.561125  1.964300
H    -3.901064  1.043580  4.382292
H    -3.039250  -0.453329  4.036055
H    -5.151571  -1.076266  4.765948
H    -5.043768  -1.483381  3.039116
H    -6.404729  0.755100  2.780957
H    -8.471620  1.555654  3.702333
H    -9.544157  0.275784  4.143180
H    -8.546367  -1.583732  5.283953
H    -7.079842  -2.185945  4.606349
N    -2.157363  3.348911  3.084400
C    -1.699209  4.559084  3.780394
H    -3.102354  3.355997  2.711176
H    -0.940930  5.080276  3.183222
H    -1.281227  4.296503  4.758345
H    -2.556636  5.221746  3.922583
Sr    1.975392  1.349972  3.388158
