37
Energy: -108387.234927 eV PBE+vdW (tier 2 basis)
C    0.130532  1.161185  0.663465
C    0.005988  -0.186369  1.297880
O    0.982994  -0.991353  1.289817
H    0.362441  1.025297  -0.403100
H    0.983367  1.696025  1.102980
H    -0.766619  1.781935  0.756812
N    -1.174714  -0.501448  1.866644
C    -1.646190  -1.775592  2.456080
C    -0.840356  -2.173148  3.710610
O    0.361748  -2.573862  3.613871
H    -1.867887  0.241089  1.839454
H    -2.666837  -1.547385  2.785370
C    -1.718688  -2.948300  1.445310
C    -2.657401  -2.703278  0.243718
C    -4.162064  -2.964136  0.447482
N    -4.524883  -4.373225  0.252251
C    -5.694369  -4.820240  -0.252868
N    -5.796569  -6.095359  -0.644824
N    -6.743482  -4.000634  -0.377326
H    -2.014351  -3.847505  2.008782
H    -0.708616  -3.150824  1.066093
H    -2.314206  -3.311485  -0.604933
H    -2.546623  -1.663410  -0.095656
H    -4.714433  -2.380046  -0.300421
H    -4.496760  -2.620948  1.441960
H    -3.865905  -5.086196  0.546914
H    -6.700269  -6.517379  -0.832101
H    -4.979976  -6.662363  -0.841692
H    -7.558750  -4.278929  -0.914172
H    -6.825401  -3.146521  0.159939
N    -1.425933  -2.128652  4.898394
C    -2.779007  -1.686162  5.263476
H    -0.837440  -2.457290  5.665785
H    -2.822179  -1.610871  6.353888
H    -3.535266  -2.413664  4.942876
H    -2.998798  -0.694882  4.851580
Sr    2.360903  -2.343078  2.504654
