37
Energy: -108386.592724 eV PBE+vdW (tier 2 basis)
C    -1.500338  -1.452805  1.688611
C    -1.567400  -1.387810  3.176314
O    -0.994442  -2.339122  3.863781
H    -2.065975  -2.329614  1.340864
H    -0.459229  -1.593119  1.369891
H    -1.903798  -0.563720  1.198643
N    -2.180169  -0.432876  3.833670
C    -2.649042  0.900024  3.424843
C    -2.200610  1.758142  4.664360
O    -1.984993  1.150029  5.723875
H    -2.077664  -0.378103  4.880744
H    -2.124778  1.220999  2.514404
C    -4.181073  1.017956  3.242823
C    -4.772595  0.272412  2.034705
C    -6.140156  0.790651  1.561680
N    -7.231139  0.545822  2.513481
C    -8.541613  0.559522  2.193621
N    -9.447698  0.197611  3.111007
N    -8.941825  0.906278  0.966447
H    -4.390490  2.093943  3.139991
H    -4.656289  0.704292  4.185584
H    -4.831726  -0.809446  2.225876
H    -4.110080  0.402291  1.165581
H    -6.394718  0.275500  0.625056
H    -6.061807  1.869665  1.343134
H    -7.017102  0.578794  3.504595
H    -10.436927  0.373466  2.972879
H    -9.184626  -0.299478  3.953166
H    -9.901996  0.763540  0.671284
H    -8.346757  1.429698  0.336297
N    -2.115385  3.078769  4.494172
C    -1.754526  4.016140  5.562189
H    -2.261241  3.463435  3.565473
H    -0.790039  4.488275  5.340055
H    -1.682590  3.463368  6.501958
H    -2.523512  4.791927  5.650999
Sr    0.236372  -3.781565  4.931801
