37
Energy: -108386.480509 eV PBE+vdW (tier 2 basis)
C    -1.277316  1.321962  -0.837142
C    -0.482987  0.639398  0.224379
O    0.774538  0.923922  0.339640
H    -1.406519  2.381246  -0.576017
H    -2.267541  0.885714  -0.991241
H    -0.722509  1.264932  -1.783375
N    -1.000376  -0.318498  0.988969
C    -2.415958  -0.354040  1.389795
C    -2.712883  1.059184  2.025077
O    -1.771879  1.841412  2.193953
H    -0.351199  -0.688195  1.684288
H    -3.033669  -0.478918  0.488043
C    -2.666714  -1.536782  2.345626
C    -2.568490  -2.914765  1.668622
C    -2.794716  -4.121184  2.591926
N    -4.212264  -4.308463  2.936846
C    -4.660990  -5.139773  3.902239
N    -5.973918  -5.213321  4.151189
N    -3.804890  -5.860005  4.634251
H    -3.660344  -1.406182  2.792568
H    -1.958366  -1.468719  3.188238
H    -1.570204  -3.049573  1.227104
H    -3.266998  -2.970492  0.817070
H    -2.230295  -3.988805  3.527085
H    -2.409988  -5.021582  2.086323
H    -4.887371  -4.070153  2.215703
H    -6.361790  -5.950730  4.729545
H    -6.629989  -4.549483  3.757995
H    -4.122442  -6.379214  5.446050
H    -2.861214  -6.046616  4.318714
N    -3.984934  1.367795  2.330635
C    -5.216162  0.622076  2.089618
H    -4.081638  2.282384  2.769334
H    -6.020718  1.335141  1.879890
H    -5.510408  0.024858  2.964359
H    -5.121990  -0.029398  1.213494
Sr    2.505402  2.235845  0.594748
