31
Energy: -16702.6789194 eV PBE+vdW (tier 2 basis)
C    2.036276  1.570614  0.212185
C    1.468439  0.680967  1.307930
O    2.176927  -0.073637  1.960291
H    1.300770  1.854515  -0.551857
H    2.875553  1.053725  -0.263513
H    2.422614  2.487244  0.679676
N    0.100388  0.800222  1.464977
C    -0.678583  0.360099  2.617453
C    -0.545663  1.390576  3.771137
O    0.454366  2.080258  3.928552
H    -0.315604  1.568922  0.950948
H    -1.727339  0.372141  2.278456
C    -0.335943  -1.081603  3.057589
C    -1.339591  -1.771878  3.999398
C    -2.746038  -1.904970  3.399980
C    -0.793162  -3.152499  4.386198
H    0.660664  -1.080876  3.513329
H    -0.246375  -1.682031  2.138063
H    -1.411924  -1.181722  4.929107
H    -2.716891  -2.473337  2.457915
H    -3.217106  -0.935944  3.174683
H    -3.418789  -2.436151  4.087185
H    -1.457937  -3.659476  5.099226
H    0.200413  -3.071767  4.846990
H    -0.696968  -3.799315  3.501122
N    -1.646841  1.472146  4.580171
C    -1.688112  2.308050  5.764940
H    -2.433351  0.863398  4.388981
H    -0.771049  2.906487  5.775379
H    -1.728336  1.705469  6.684207
H    -2.555810  2.981373  5.743305
