31
Energy: -16703.0082796 eV PBE+vdW (tier 2 basis)
C    -2.415662  -1.820880  0.055503
C    -1.252267  -1.387977  0.923233
O    -0.078444  -1.602443  0.590589
H    -3.398133  -1.595775  0.487989
H    -2.341135  -2.899913  -0.126544
H    -2.332081  -1.319046  -0.916796
N    -1.578548  -0.762394  2.084348
C    -0.621938  -0.141368  3.000887
C    0.111607  -1.146263  3.944584
O    0.260877  -0.930652  5.146723
H    -2.560430  -0.656514  2.309903
H    0.179791  0.272746  2.366101
C    -1.271551  1.018294  3.772037
C    -2.705779  0.829993  4.311357
C    -2.888121  -0.385480  5.229952
C    -3.140167  2.116547  5.026961
H    -1.272535  1.902809  3.117486
H    -0.604308  1.239827  4.616995
H    -3.391986  0.714559  3.448975
H    -2.667032  -1.336640  4.726367
H    -3.924477  -0.436794  5.592382
H    -2.218125  -0.324626  6.096939
H    -2.517311  2.294316  5.915908
H    -4.185163  2.051938  5.359388
H    -3.047644  2.994776  4.372696
N    0.612453  -2.231797  3.305717
C    1.406664  -3.224107  4.004700
H    0.585112  -2.226445  2.280850
H    0.949486  -3.447354  4.975730
H    2.434792  -2.875817  4.191045
H    1.446060  -4.139519  3.403996
