31
Energy: -16702.9488278 eV PBE+vdW (tier 2 basis)
C    0.731710  0.548390  -0.943930
C    0.678274  -0.122503  0.415987
O    1.499622  -0.973468  0.761460
H    0.696194  -0.226154  -1.719860
H    1.693256  1.067337  -1.044020
H    -0.080488  1.265907  -1.112471
N    -0.332100  0.292804  1.233107
C    -0.579769  -0.323927  2.520522
C    -2.086758  -0.194448  2.779427
O    -2.776014  0.604949  2.138288
H    -1.089176  0.883523  0.894041
H    -0.308874  -1.388875  2.430794
C    0.324117  0.268800  3.634642
C    0.194200  1.776514  3.917259
C    -1.026781  2.128309  4.778185
C    1.481337  2.287241  4.578115
H    1.350737  0.046969  3.309267
H    0.174875  -0.294328  4.569443
H    0.090846  2.290857  2.946937
H    -1.974326  1.879808  4.286254
H    -1.048932  3.204832  4.997946
H    -0.990178  1.597002  5.742295
H    1.426443  3.367366  4.772483
H    2.358804  2.101425  3.943688
H    1.655942  1.786799  5.543347
N    -2.641800  -0.985407  3.738315
C    -2.009084  -1.984445  4.580960
H    -3.628978  -0.797059  3.884406
H    -2.743446  -2.760239  4.827904
H    -1.622641  -1.559962  5.520363
H    -1.180012  -2.470014  4.053847
