31
Energy: -16702.6416639 eV PBE+vdW (tier 2 basis)
C    -0.526785  0.913962  -0.246616
C    -0.094881  0.753402  1.197812
O    1.017881  1.103780  1.583784
H    -1.532856  1.339415  -0.350026
H    -0.520236  -0.063908  -0.747961
H    0.195586  1.568766  -0.740972
N    -0.982271  0.188075  2.082266
C    -2.346562  -0.283823  1.876642
C    -2.393087  -1.349840  0.743550
O    -1.589672  -2.276164  0.731830
H    -0.571359  0.038572  2.997420
H    -2.568836  -0.882877  2.774068
C    -3.415122  0.828917  1.824779
C    -3.429121  1.790549  3.036513
C    -2.472936  2.978505  2.865946
C    -4.856230  2.289834  3.298155
H    -4.396105  0.328366  1.778258
H    -3.319128  1.428320  0.903598
H    -3.108142  1.215748  3.923693
H    -2.507401  3.633625  3.747374
H    -2.764200  3.585255  1.994604
H    -1.433229  2.664379  2.723962
H    -4.886152  2.971260  4.159316
H    -5.546001  1.458784  3.502460
H    -5.244885  2.842328  2.428799
N    -3.379204  -1.203354  -0.186723
C    -3.548815  -2.127782  -1.291949
H    -3.970201  -0.383192  -0.142146
H    -4.581005  -2.500037  -1.337046
H    -2.868040  -2.969173  -1.126374
H    -3.298843  -1.655206  -2.253034
