31
Energy: -16702.6483187 eV PBE+vdW (tier 2 basis)
C    0.513501  -0.177541  0.282863
C    0.509054  0.600357  1.586910
O    1.393272  1.405705  1.870213
H    1.414463  0.101923  -0.268957
H    -0.365417  0.057126  -0.334745
H    0.518394  -1.262469  0.454720
N    -0.539682  0.384795  2.445715
C    -1.627613  -0.577907  2.326416
C    -2.957855  0.032623  2.838499
O    -3.688798  -0.560920  3.626871
H    -0.445829  0.889541  3.323472
H    -1.791086  -0.740991  1.248751
C    -1.329367  -1.956860  2.957396
C    -0.480081  -1.977178  4.241890
C    -1.117035  -1.246391  5.430568
C    -0.166944  -3.432120  4.615531
H    -0.800813  -2.557911  2.201308
H    -2.294262  -2.451006  3.141608
H    0.479823  -1.482878  4.013734
H    -0.471693  -1.326164  6.316473
H    -2.099267  -1.670654  5.677589
H    -1.275673  -0.175733  5.241208
H    -1.087106  -3.983431  4.860906
H    0.493212  -3.481413  5.492264
H    0.330481  -3.962910  3.791333
N    -3.305586  1.265000  2.353658
C    -2.710753  2.044005  1.276789
H    -4.193950  1.584703  2.726230
H    -3.467027  2.743802  0.903460
H    -2.411514  1.406308  0.434150
H    -1.833446  2.618950  1.602012
