31
Energy: -16702.9631796 eV PBE+vdW (tier 2 basis)
C    0.564240  0.839983  0.396106
C    0.193173  0.473157  1.821532
O    0.997600  -0.026503  2.600422
H    1.032519  -0.027474  -0.083801
H    1.314661  1.640572  0.425201
H    -0.286091  1.173433  -0.212184
N    -1.116074  0.728358  2.168118
C    -1.584614  0.619526  3.546967
C    -2.465883  -0.615698  3.829236
O    -2.977559  -0.774807  4.935808
H    -1.678855  1.263591  1.517221
H    -0.670404  0.445384  4.136548
C    -2.252058  1.911121  4.060146
C    -3.706389  2.193523  3.635780
C    -4.183309  3.491284  4.299075
C    -3.924597  2.255376  2.116960
H    -1.605183  2.755911  3.770684
H    -2.230590  1.863692  5.157088
H    -4.323644  1.370001  4.029265
H    -5.242582  3.683929  4.079908
H    -3.606366  4.357188  3.938850
H    -4.069747  3.446290  5.390742
H    -4.955698  2.556517  1.885568
H    -3.771725  1.279119  1.633864
H    -3.260085  2.995917  1.642096
N    -2.612766  -1.483951  2.792343
C    -3.320747  -2.741225  2.921869
H    -2.082255  -1.284621  1.951655
H    -2.631389  -3.597764  2.894788
H    -4.063405  -2.857748  2.121075
H    -3.833177  -2.734082  3.890071
