31
Energy: -16702.625444 eV PBE+vdW (tier 2 basis)
C    0.094751  -0.290046  -0.009732
C    -0.081518  0.011493  1.469016
O    0.730177  -0.350480  2.315448
H    1.104687  0.009550  -0.313353
H    -0.638897  0.206246  -0.657506
H    0.017625  -1.375222  -0.156983
N    -1.204677  0.726967  1.788582
C    -1.627968  0.989987  3.165106
C    -0.483792  1.571825  4.045876
O    -0.276529  1.160567  5.181811
H    -1.865920  0.925405  1.048607
H    -2.376257  1.800016  3.094758
C    -2.280016  -0.224848  3.844350
C    -3.787506  -0.399290  3.596853
C    -4.170981  -0.559258  2.118666
C    -4.306187  -1.590246  4.412757
H    -2.098961  -0.125258  4.922603
H    -1.733808  -1.128219  3.531967
H    -4.291231  0.508953  3.976364
H    -5.241714  -0.784625  2.015127
H    -3.609641  -1.381155  1.649286
H    -3.984512  0.353275  1.533529
H    -3.848183  -2.529939  4.068555
H    -5.395789  -1.696882  4.317489
H    -4.068180  -1.477687  5.479112
N    0.217668  2.641534  3.557551
C    0.127483  3.331161  2.284990
H    0.961723  2.922123  4.188019
H    0.548637  4.336737  2.406498
H    -0.915954  3.451058  1.968379
H    0.677643  2.820888  1.478961
