31
Energy: -16703.0489674 eV PBE+vdW (tier 2 basis)
C    0.434778  0.404580  0.226925
C    0.050649  0.681355  1.668656
O    0.538330  1.612256  2.311331
H    1.519895  0.252455  0.175017
H    0.199342  1.290093  -0.376548
H    -0.071635  -0.467340  -0.204886
N    -0.874000  -0.168865  2.200656
C    -1.323444  -0.064474  3.575938
C    -1.641445  -1.489769  4.044767
O    -2.132717  -2.324035  3.281752
H    -1.237289  -0.962215  1.679204
H    -0.492628  0.368732  4.151700
C    -2.563192  0.856568  3.685049
C    -3.084657  1.156722  5.100173
C    -2.049271  1.887178  5.965575
C    -4.380701  1.972279  5.010024
H    -3.367380  0.402300  3.085564
H    -2.291341  1.803278  3.192281
H    -3.332389  0.199231  5.590373
H    -1.750292  2.837536  5.499398
H    -1.128332  1.305613  6.116728
H    -2.457594  2.114074  6.959974
H    -4.797205  2.169557  6.007550
H    -5.145674  1.444508  4.423977
H    -4.201022  2.944256  4.526386
N    -1.372889  -1.757915  5.348155
C    -1.692863  -3.040371  5.952508
H    -0.951689  -1.034661  5.917135
H    -1.374959  -3.026825  6.999833
H    -1.177081  -3.857402  5.430922
H    -2.772305  -3.239701  5.906883
