31
Energy: -16703.0500609 eV PBE+vdW (tier 2 basis)
C    -1.461499  -0.984064  0.739521
C    -0.778684  -0.348012  1.934223
O    0.449936  -0.406118  2.075819
H    -1.290788  -2.067704  0.777769
H    -0.989785  -0.611409  -0.177490
H    -2.541282  -0.798382  0.691113
N    -1.601868  0.278241  2.818425
C    -1.238875  0.860795  4.121184
C    -0.436449  2.185147  4.052018
O    -0.801349  3.151844  4.722729
H    -2.586583  0.299469  2.585816
H    -2.190785  1.172979  4.565805
C    -0.552823  -0.138810  5.073986
C    -1.322872  -1.444951  5.331397
C    -0.487937  -2.366641  6.228412
C    -2.713447  -1.208919  5.932387
H    -0.402561  0.393805  6.027119
H    0.445296  -0.383104  4.686259
H    -1.452271  -1.955511  4.361555
H    0.499488  -2.563883  5.788845
H    -0.987621  -3.333233  6.381385
H    -0.328505  -1.914590  7.219120
H    -2.644885  -0.652234  6.879298
H    -3.216396  -2.162660  6.143244
H    -3.370822  -0.638358  5.261325
N    0.666284  2.161339  3.264069
C    1.544067  3.305160  3.121929
H    0.882302  1.278783  2.787294
H    1.093936  4.149206  3.655267
H    1.670776  3.572081  2.063560
H    2.536002  3.103734  3.552617
