31
Energy: -16702.7149079 eV PBE+vdW (tier 2 basis)
C    -0.001899  0.221215  0.008110
C    -0.022219  -0.182879  1.469291
O    1.008463  -0.377291  2.112109
H    -0.985753  0.175765  -0.475665
H    0.699096  -0.425123  -0.532036
H    0.376346  1.249870  -0.063714
N    -1.268474  -0.314146  2.020032
C    -1.476440  -0.549875  3.442468
C    -2.433714  -1.742475  3.671590
O    -3.454236  -1.651031  4.352401
H    -2.075978  -0.102975  1.446448
H    -0.483879  -0.864410  3.805088
C    -1.872436  0.701450  4.256156
C    -2.841991  1.755156  3.662774
C    -2.164020  2.727398  2.682912
C    -4.143622  1.187860  3.081519
H    -0.939982  1.223686  4.516704
H    -2.301192  0.325509  5.194910
H    -3.134995  2.364005  4.535291
H    -2.830561  3.571710  2.456518
H    -1.906274  2.253093  1.726329
H    -1.235907  3.137846  3.104482
H    -4.836420  2.003481  2.830664
H    -4.636594  0.507072  3.784273
H    -3.978035  0.620494  2.151376
N    -2.082680  -2.933890  3.098696
C    -0.873106  -3.297984  2.378557
H    -2.761004  -3.666284  3.283729
H    -0.648843  -4.353300  2.575899
H    -0.013856  -2.705620  2.713446
H    -0.975978  -3.162085  1.290856
