31
Energy: -16702.6842046 eV PBE+vdW (tier 2 basis)
C    0.418384  0.562334  0.808296
C    0.192925  -0.476846  1.887021
O    1.074310  -0.823448  2.671041
H    -0.122997  1.491042  1.038044
H    0.065426  0.223427  -0.174874
H    1.488831  0.777497  0.762264
N    -1.061389  -1.038031  1.962620
C    -2.266711  -0.652668  1.240360
C    -2.753923  0.787333  1.524299
O    -3.095763  1.501784  0.581140
H    -1.151052  -1.716836  2.713939
H    -2.048579  -0.621015  0.162501
C    -3.338290  -1.739459  1.457945
C    -4.680774  -1.542604  0.722365
C    -5.308140  -2.908042  0.412427
C    -5.666051  -0.670045  1.511477
H    -3.532134  -1.865710  2.537031
H    -2.875103  -2.679894  1.120216
H    -4.471443  -1.037907  -0.235341
H    -4.650102  -3.520663  -0.219444
H    -6.266254  -2.792676  -0.112356
H    -5.504464  -3.472257  1.337302
H    -6.606968  -0.550760  0.957283
H    -5.274818  0.335045  1.705658
H    -5.908918  -1.137265  2.478687
N    -2.790926  1.255815  2.806933
C    -2.493744  0.589425  4.067038
H    -3.098492  2.222301  2.851111
H    -2.899949  1.203779  4.878248
H    -1.415337  0.463777  4.236450
H    -2.978988  -0.392629  4.132658
