31
Energy: -16702.8797652 eV PBE+vdW (tier 2 basis)
C    0.112096  1.474206  0.139283
C    0.013550  0.286879  1.084603
O    0.815448  -0.642751  1.034009
H    0.996244  1.324611  -0.485618
H    0.219580  2.424207  0.681974
H    -0.771154  1.555461  -0.507956
N    -1.013726  0.277295  1.993445
C    -1.992403  1.306522  2.291156
C    -1.957285  1.574949  3.807608
O    -1.797922  0.658785  4.610305
H    -0.971139  -0.481522  2.673073
H    -1.715002  2.220744  1.749107
C    -3.428156  0.881406  1.901092
C    -3.675798  0.741194  0.390725
C    -4.959917  -0.056441  0.133579
C    -3.735126  2.103186  -0.312283
H    -4.143402  1.608191  2.322881
H    -3.628766  -0.076713  2.404423
H    -2.836203  0.163259  -0.031431
H    -5.146259  -0.173889  -0.942859
H    -5.834933  0.450812  0.568133
H    -4.901646  -1.060109  0.576039
H    -3.847918  1.983608  -1.398420
H    -2.830430  2.705078  -0.145869
H    -4.594342  2.690225  0.046979
N    -2.157121  2.873773  4.170094
C    -2.241811  3.301265  5.554849
H    -2.268342  3.564099  3.437426
H    -1.473587  4.051907  5.784720
H    -2.074911  2.418545  6.180912
H    -3.231499  3.720431  5.784457
