31
Energy: -16702.7312884 eV PBE+vdW (tier 2 basis)
C    0.051568  -1.003824  0.801773
C    -0.350955  0.303350  1.464360
O    0.413097  1.262267  1.534142
H    1.080072  -0.894952  0.448588
H    -0.594263  -1.245340  -0.054345
H    -0.001400  -1.848153  1.502924
N    -1.622759  0.378323  1.979788
C    -2.604129  -0.699579  2.103528
C    -3.977193  -0.039452  1.852566
O    -4.619249  0.475147  2.765496
H    -1.817172  1.241487  2.483090
H    -2.393283  -1.417128  1.302127
C    -2.546144  -1.415943  3.463598
C    -3.116207  -2.850641  3.493436
C    -4.597490  -2.932158  3.100249
C    -2.268735  -3.830362  2.669579
H    -3.071874  -0.787329  4.196883
H    -1.489590  -1.452130  3.768928
H    -3.042856  -3.169648  4.546814
H    -4.986382  -3.945904  3.268660
H    -4.752462  -2.702607  2.034734
H    -5.209357  -2.228899  3.679335
H    -2.631060  -4.860391  2.791362
H    -1.213802  -3.809609  2.978130
H    -2.305814  -3.605991  1.592326
N    -4.421107  -0.016338  0.561476
C    -3.707022  -0.442394  -0.631275
H    -5.284689  0.503562  0.441257
H    -4.346149  -0.255347  -1.500436
H    -3.485008  -1.519385  -0.613885
H    -2.768022  0.112748  -0.774508
