31
Energy: -16702.6864565 eV PBE+vdW (tier 2 basis)
C    0.341255  -1.696528  0.392880
C    0.045531  -1.410399  1.856458
O    0.493804  -2.114006  2.756225
H    0.119243  -2.750161  0.187899
H    1.415128  -1.547504  0.219584
H    -0.216657  -1.064681  -0.309767
N    -0.718054  -0.288772  2.077723
C    -1.261475  0.094003  3.387872
C    -2.211136  1.292494  3.257548
O    -3.118315  1.465162  4.063490
H    -1.235102  0.052991  1.274524
H    -1.904746  -0.721237  3.757665
C    -0.205678  0.310041  4.504421
C    0.827985  1.457012  4.442798
C    1.713620  1.454949  3.189111
C    0.246588  2.851614  4.717973
H    0.332500  -0.641741  4.590144
H    -0.791219  0.425906  5.428882
H    1.498335  1.234942  5.291571
H    2.544644  2.164879  3.305350
H    1.158276  1.752765  2.287929
H    2.140874  0.461502  2.998426
H    1.054183  3.575111  4.898222
H    -0.406460  2.848082  5.600932
H    -0.343842  3.234491  3.875509
N    -1.996260  2.129420  2.190180
C    -2.755268  3.360296  2.046220
H    -1.086960  2.082059  1.741623
H    -2.740164  3.681431  0.998604
H    -2.357276  4.170223  2.678561
H    -3.788131  3.170892  2.355225
