31
Energy: -16702.8435166 eV PBE+vdW (tier 2 basis)
C    -0.716383  1.271250  0.471052
C    -1.028037  0.915427  1.914254
O    -1.048933  1.749717  2.810884
H    0.207639  1.860565  0.444142
H    -1.521895  1.909847  0.085881
H    -0.608486  0.401393  -0.189105
N    -1.273071  -0.418799  2.152867
C    -1.768635  -0.899557  3.443215
C    -0.674812  -0.930134  4.531995
O    -0.967228  -0.818922  5.719917
H    -1.385018  -1.033570  1.353587
H    -2.507103  -0.178525  3.821092
C    -2.436705  -2.269280  3.188311
C    -3.171604  -2.996208  4.338495
C    -2.237568  -3.775923  5.274929
C    -4.119973  -2.076676  5.118460
H    -1.677529  -2.952783  2.770105
H    -3.172877  -2.089807  2.386545
H    -3.796022  -3.746110  3.821988
H    -1.570777  -4.441637  4.707665
H    -2.825360  -4.403037  5.959859
H    -1.620275  -3.105496  5.884083
H    -3.560827  -1.348464  5.720606
H    -4.746382  -2.665702  5.802344
H    -4.793702  -1.524686  4.446439
N    0.590382  -1.139999  4.077610
C    1.742422  -1.140209  4.956696
H    0.729157  -1.076593  3.075179
H    2.321184  -0.208744  4.868319
H    2.399678  -1.991491  4.735403
H    1.375739  -1.224846  5.985183
