31
Energy: -16702.55112 eV PBE+vdW (tier 2 basis)
C    -0.467978  -0.622980  -0.582685
C    -0.209631  0.023503  0.762368
O    0.846357  0.608024  0.991394
H    0.101742  -1.561360  -0.630379
H    -0.071866  0.041067  -1.357943
H    -1.516014  -0.850447  -0.793178
N    -1.142891  -0.109027  1.773622
C    -2.554347  -0.513789  1.779037
C    -2.824665  -1.878765  1.098511
O    -3.878913  -2.124046  0.520518
H    -0.836161  0.398602  2.600457
H    -2.742537  -0.760465  2.839667
C    -3.606649  0.582157  1.485485
C    -3.674130  1.424686  0.190633
C    -2.476990  2.362091  -0.027082
C    -4.030607  0.646884  -1.081254
H    -3.523801  1.297497  2.320347
H    -4.578184  0.081491  1.611468
H    -4.537138  2.085172  0.389264
H    -2.730340  3.130941  -0.770268
H    -1.588218  1.842175  -0.402394
H    -2.188487  2.877519  0.899708
H    -4.910309  0.010036  -0.930626
H    -3.216511  -0.007052  -1.417387
H    -4.243019  1.346528  -1.902350
N    -1.845906  -2.804886  1.306963
C    -1.913507  -4.149435  0.771860
H    -0.993050  -2.488397  1.755136
H    -1.702279  -4.891506  1.553033
H    -1.201431  -4.293327  -0.055003
H    -2.928394  -4.306836  0.391854
