31
Energy: -16702.9252184 eV PBE+vdW (tier 2 basis)
C    0.449707  -0.058936  -0.559671
C    0.309714  -0.281980  0.933959
O    1.119688  -0.955815  1.570914
H    1.398060  0.459620  -0.748715
H    -0.368711  0.523602  -1.000430
H    0.505819  -1.033892  -1.058850
N    -0.775411  0.315173  1.515324
C    -1.052039  0.264064  2.948700
C    -2.448339  -0.363625  3.149516
O    -3.450387  0.334843  3.303469
H    -1.399247  0.868302  0.937846
H    -0.276923  -0.391587  3.364044
C    -0.975442  1.644262  3.610140
C    0.385166  2.350059  3.491770
C    0.279394  3.773762  4.052163
C    1.517785  1.573235  4.175474
H    -1.232925  1.519620  4.674656
H    -1.770489  2.278264  3.189671
H    0.632627  2.431625  2.418881
H    0.038468  3.757410  5.126071
H    -0.507276  4.350099  3.545191
H    1.226162  4.318733  3.933979
H    1.687780  0.593080  3.711391
H    1.295082  1.415444  5.242372
H    2.463048  2.130418  4.115781
N    -2.532958  -1.727221  3.135377
C    -1.526887  -2.712104  2.772342
H    -3.493588  -2.051812  3.211185
H    -1.635052  -3.038081  1.725776
H    -1.617967  -3.591304  3.423083
H    -0.516858  -2.306258  2.883591
