31
Energy: -16702.7026475 eV PBE+vdW (tier 2 basis)
C    -0.364577  1.256807  0.485169
C    0.527077  0.361533  1.321277
O    1.720143  0.596281  1.507045
H    0.257408  2.038440  0.042202
H    -1.149714  1.723675  1.096571
H    -0.872226  0.696146  -0.311988
N    -0.055290  -0.752740  1.876293
C    -1.462347  -1.123131  1.877132
C    -2.395325  -0.180014  2.675723
O    -3.500830  0.098013  2.211877
H    0.590221  -1.312891  2.425357
H    -1.861146  -1.041387  0.854540
C    -1.659381  -2.579616  2.344604
C    -1.462043  -3.667710  1.271143
C    -0.045234  -3.721212  0.686663
C    -1.863491  -5.031917  1.845500
H    -2.686409  -2.666197  2.727764
H    -0.996107  -2.780790  3.205001
H    -2.159741  -3.430339  0.448940
H    0.700688  -3.918336  1.472669
H    0.238711  -2.787696  0.185783
H    0.035482  -4.532416  -0.049965
H    -1.795006  -5.817529  1.080912
H    -2.893848  -5.023196  2.227296
H    -1.200975  -5.321431  2.675662
N    -1.992479  0.321112  3.881033
C    -0.791456  0.061422  4.663594
H    -2.695023  0.926480  4.294042
H    -0.573955  -1.012187  4.735249
H    -0.969252  0.422036  5.682933
H    0.094065  0.575977  4.266195
