31
Energy: -16702.8037325 eV PBE+vdW (tier 2 basis)
C    0.134319  -0.025083  -0.247853
C    0.257180  -0.246986  1.252287
O    1.352329  -0.375277  1.794063
H    1.146471  0.011038  -0.658780
H    -0.375222  0.920823  -0.481595
H    -0.420964  -0.834837  -0.739201
N    -0.900594  -0.314375  1.985311
C    -2.263935  -0.063921  1.562343
C    -2.883334  0.970118  2.519703
O    -2.545394  1.019691  3.700369
H    -0.763019  -0.330975  2.995647
H    -2.244391  0.335761  0.541335
C    -3.136675  -1.343500  1.605478
C    -2.799341  -2.392900  0.535464
C    -3.426991  -3.744239  0.897288
C    -3.242145  -1.946270  -0.863458
H    -4.200841  -1.065098  1.518022
H    -3.017575  -1.776846  2.610256
H    -1.704048  -2.525541  0.533048
H    -3.185750  -4.508855  0.146064
H    -4.523804  -3.669077  0.953544
H    -3.066436  -4.103838  1.870527
H    -2.939851  -2.675809  -1.627035
H    -2.812173  -0.977029  -1.153656
H    -4.337939  -1.850955  -0.913044
N    -3.857758  1.779903  2.011902
C    -4.296136  1.885001  0.629383
H    -4.252143  2.420643  2.693336
H    -5.133229  2.589415  0.585732
H    -4.652483  0.923322  0.233835
H    -3.504312  2.265196  -0.034212
