31
Energy: -16702.6126934 eV PBE+vdW (tier 2 basis)
C    0.237313  -1.535634  0.142466
C    0.179700  -0.569398  1.315529
O    1.153124  0.119575  1.620864
H    1.034727  -2.264916  0.332299
H    0.515169  -0.974860  -0.758264
H    -0.698906  -2.075211  -0.046192
N    -1.016324  -0.554114  1.978781
C    -1.429147  0.216052  3.163686
C    -2.287974  1.446182  2.760181
O    -3.506494  1.389598  2.955141
H    -1.752114  -1.124107  1.578511
H    -2.193067  -0.415751  3.634343
C    -0.318052  0.416977  4.210399
C    -0.788903  0.889181  5.606436
C    -1.194470  2.369559  5.655956
C    -1.879514  -0.002033  6.215633
H    0.463851  1.090014  3.844779
H    0.168455  -0.564092  4.326353
H    0.107707  0.785092  6.241018
H    -1.335440  2.693250  6.696670
H    -2.139494  2.557195  5.129513
H    -0.421620  3.012199  5.211354
H    -2.046122  0.258924  7.269782
H    -1.601791  -1.065668  6.178469
H    -2.841960  0.118260  5.697964
N    -1.733339  2.541724  2.172887
C    -0.344784  2.908723  1.946679
H    -2.434690  3.253842  1.987049
H    -0.264120  3.434499  0.986422
H    0.032249  3.576151  2.738154
H    0.296388  2.022756  1.894771
