31
Energy: -16702.7842601 eV PBE+vdW (tier 2 basis)
C    -0.902867  -0.064534  -0.161925
C    -0.464072  0.736581  1.054159
O    0.200816  1.764852  0.943715
H    -0.447093  -1.064109  -0.177488
H    -0.585543  0.481117  -1.054206
H    -1.993890  -0.197702  -0.192378
N    -0.846444  0.274243  2.284477
C    -1.622682  -0.901759  2.615796
C    -2.335337  -0.602670  3.950244
O    -1.942695  0.279488  4.711401
H    -0.622248  0.875785  3.076856
H    -2.403509  -1.042602  1.849798
C    -0.806554  -2.228375  2.655176
C    0.215210  -2.496610  3.783985
C    1.277476  -1.400826  3.949621
C    -0.426965  -2.848170  5.134923
H    -0.274856  -2.283641  1.693455
H    -1.525951  -3.064975  2.640077
H    0.743146  -3.405069  3.444338
H    2.086976  -1.756314  4.602231
H    0.859109  -0.497694  4.412706
H    1.721654  -1.109476  2.988674
H    -0.878080  -1.972122  5.618236
H    0.333858  -3.238829  5.824752
H    -1.203017  -3.619973  5.026771
N    -3.409027  -1.395512  4.215251
C    -4.098821  -1.370447  5.492167
H    -3.631526  -2.135287  3.560042
H    -5.178666  -1.488236  5.342353
H    -3.902748  -0.402315  5.963750
H    -3.739566  -2.164780  6.164660
