31
Energy: -16702.9321217 eV PBE+vdW (tier 2 basis)
C    -0.373917  1.188894  -0.923082
C    -0.090929  0.496178  0.395517
O    0.921172  -0.183096  0.571959
H    -0.333856  0.444965  -1.727702
H    0.421995  1.920445  -1.113304
H    -1.342419  1.702599  -0.951390
N    -1.013742  0.722538  1.380679
C    -1.002224  -0.013092  2.630520
C    -2.354039  -0.735250  2.747500
O    -3.367884  -0.275423  2.218596
H    -1.929176  1.085364  1.122326
H    -0.173324  -0.731967  2.555201
C    -0.805739  0.883840  3.879923
C    0.646913  1.217575  4.261964
C    1.391443  2.042735  3.205668
C    0.664485  1.929545  5.620970
H    -1.277066  0.385232  4.742104
H    -1.380377  1.811511  3.724091
H    1.182286  0.257685  4.377172
H    1.537860  1.484426  2.273914
H    2.385128  2.329712  3.577511
H    0.843630  2.968348  2.972709
H    1.693859  2.127473  5.949782
H    0.170680  1.332331  6.401031
H    0.144203  2.897891  5.564135
N    -2.385977  -1.874365  3.494280
C    -1.263085  -2.559370  4.116085
H    -3.310640  -2.283628  3.580185
H    -1.628477  -3.496317  4.548793
H    -0.808841  -1.969386  4.926044
H    -0.480942  -2.809392  3.385818
