31
Energy: -16702.9846403 eV PBE+vdW (tier 2 basis)
C    -0.229229  -0.123809  -0.217962
C    -0.938605  0.078768  1.108047
O    -1.700978  1.024958  1.306099
H    0.356421  0.775607  -0.444355
H    -0.983245  -0.230777  -1.007732
H    0.433453  -0.997796  -0.235850
N    -0.673149  -0.862391  2.061791
C    -1.261350  -0.812222  3.392505
C    -0.150186  -1.211892  4.370138
O    0.483504  -2.256817  4.219633
H    -0.026089  -1.623491  1.881660
H    -1.572577  0.231171  3.542011
C    -2.495390  -1.738865  3.471214
C    -3.361706  -1.703532  4.748632
C    -2.730641  -2.420568  5.950650
C    -3.824946  -0.287490  5.116808
H    -2.154024  -2.769799  3.289745
H    -3.126495  -1.456117  2.615328
H    -4.267074  -2.275442  4.482065
H    -1.868905  -1.872156  6.354134
H    -2.383454  -3.426866  5.680616
H    -3.461451  -2.522232  6.765209
H    -4.589663  -0.320568  5.904890
H    -4.252836  0.238855  4.252412
H    -2.998553  0.327685  5.503726
N    0.077447  -0.329217  5.381078
C    1.049373  -0.564982  6.431080
H    -0.489626  0.509270  5.412894
H    1.763082  0.266588  6.501248
H    1.590949  -1.482468  6.178258
H    0.559942  -0.698407  7.407027
