27
Energy: -18678.4595453 eV PBE+vdW (tier 2 basis)
N    -0.294789  -0.168407  -0.142505
C    -0.199351  0.001008  1.301298
C    1.188216  0.508855  1.767310
O    2.071417  0.814752  0.998379
H    0.253988  -0.985063  -0.422289
H    0.169641  0.620555  -0.597037
H    -0.914409  0.793151  1.590107
C    -0.638425  -1.307656  2.000355
C    -0.888848  -1.211532  3.479207
C    -1.810229  -0.398662  4.116694
C    -0.261202  -1.993956  4.516427
N    -1.785440  -0.636721  5.473719
C    -0.845706  -1.605901  5.755581
C    0.743065  -2.978021  4.520226
C    -0.456864  -2.164583  6.976421
C    1.129923  -3.537363  5.730432
C    0.537012  -3.135622  6.945289
H    0.123371  -2.079443  1.811628
H    -1.547679  -1.641360  1.478755
H    -2.499434  0.327989  3.698974
H    -2.345498  -0.147821  6.158727
H    1.215674  -3.294855  3.590427
H    -0.913079  -1.852570  7.916002
H    1.908386  -4.299400  5.746469
H    0.865729  -3.593931  7.877390
O    1.360097  0.651690  3.105753
H    0.582052  0.266349  3.570498
