27
Energy: -18678.4364124 eV PBE+vdW (tier 2 basis)
N    0.132658  -0.623653  -0.132898
C    -0.023889  -0.008523  1.194675
C    1.284606  0.654985  1.664601
O    1.489802  1.842824  1.545689
H    0.864346  -1.336906  -0.111019
H    0.432313  0.083308  -0.805666
H    -0.725895  0.827676  1.079659
C    -0.663960  -1.012039  2.182883
C    0.069729  -2.306773  2.393834
C    0.071046  -3.398011  1.544592
C    0.873967  -2.686404  3.533126
N    0.830260  -4.413452  2.084877
C    1.338290  -4.014310  3.301848
C    1.238720  -2.041879  4.730998
C    2.148194  -4.695596  4.214789
C    2.040043  -2.718055  5.640432
C    2.491580  -4.029463  5.385348
H    -1.667452  -1.223487  1.787534
H    -0.807224  -0.507203  3.149226
H    -0.439527  -3.528886  0.596368
H    0.982801  -5.315891  1.655593
H    0.908626  -1.023851  4.938084
H    2.495464  -5.710334  4.019524
H    2.331040  -2.227306  6.568486
H    3.121927  -4.529728  6.119707
O    2.265408  -0.159063  2.145094
H    1.918919  -1.068278  2.274821
