27
Energy: -18678.5225624 eV PBE+vdW (tier 2 basis)
N    1.946611  -1.309646  1.996083
C    0.984932  -1.368120  0.890928
C    0.580926  0.006857  0.355396
O    0.768251  0.407334  -0.773542
H    1.557515  -0.776101  2.775381
H    2.798547  -0.829069  1.704934
H    1.472918  -1.868584  0.043740
C    -0.245022  -2.202293  1.311918
C    -1.285413  -2.331842  0.241087
C    -1.252312  -3.201004  -0.827866
C    -2.483421  -1.548000  0.086419
N    -2.355119  -3.000288  -1.632918
C    -3.132205  -1.994473  -1.101753
C    -3.084481  -0.520556  0.835849
C    -4.336682  -1.446178  -1.550999
C    -4.282568  0.025787  0.393026
C    -4.901944  -0.429704  -0.789004
H    -0.687833  -1.749443  2.211882
H    0.138138  -3.186786  1.615643
H    -0.516601  -3.957632  -1.080804
H    -2.560405  -3.514341  -2.478184
H    -2.615035  -0.154839  1.748768
H    -4.816523  -1.800137  -2.463906
H    -4.756490  0.821467  0.967685
H    -5.840340  0.021484  -1.110210
O    0.002261  0.781894  1.322612
H    -0.229705  1.623211  0.884835
