27
Energy: -18678.6881535 eV PBE+vdW (tier 2 basis)
N    -0.739336  -1.283319  0.332232
C    0.037854  -0.583797  1.368844
C    1.542912  -0.759899  1.082325
O    2.404483  -0.100399  1.620385
H    -0.946650  -0.663917  -0.450723
H    -1.635285  -1.607897  0.700258
H    -0.160935  0.499410  1.397110
C    -0.255849  -1.161643  2.775337
C    -1.688160  -1.023034  3.187271
C    -2.265626  0.068626  3.799426
C    -2.748325  -1.976640  2.979074
N    -3.616838  -0.151124  3.976318
C    -3.947728  -1.395613  3.486549
C    -2.806328  -3.270517  2.426493
C    -5.176731  -2.059357  3.447016
C    -4.027701  -3.931708  2.384889
C    -5.200525  -3.332534  2.887705
H    0.407222  -0.644525  3.480753
H    0.039136  -2.222550  2.788210
H    -1.808539  0.994849  4.132294
H    -4.256208  0.489337  4.426278
H    -1.906808  -3.753357  2.042236
H    -6.083699  -1.599748  3.840559
H    -4.082617  -4.933964  1.960985
H    -6.142220  -3.878428  2.841010
O    1.801872  -1.750862  0.206396
H    0.889629  -2.060390  -0.063230
