27
Energy: -18678.5077145 eV PBE+vdW (tier 2 basis)
N    0.971614  -0.669314  3.706355
C    0.393599  -1.116590  2.432551
C    0.456827  -0.002263  1.383420
O    -0.114491  1.065011  1.464212
H    1.961402  -0.447811  3.591326
H    0.510744  0.193113  4.005781
H    0.994473  -1.965821  2.079147
C    -1.056856  -1.556664  2.657408
C    -1.738896  -2.178595  1.476396
C    -1.178016  -2.684139  0.323155
C    -3.158181  -2.390429  1.359126
N    -2.168064  -3.195494  -0.496354
C    -3.394307  -3.029773  0.108451
C    -4.254774  -2.103538  2.190358
C    -4.676799  -3.378237  -0.323560
C    -5.531909  -2.448553  1.764389
C    -5.740960  -3.078892  0.521007
H    -1.630603  -0.673160  2.983172
H    -1.048963  -2.250470  3.513066
H    -0.142137  -2.717870  0.003785
H    -2.013678  -3.603355  -1.407513
H    -4.108263  -1.616893  3.155060
H    -4.840110  -3.866260  -1.284900
H    -6.389801  -2.229421  2.399685
H    -6.754722  -3.336495  0.215429
O    1.297513  -0.309154  0.350815
H    1.292356  0.471063  -0.238765
