27
Energy: -18678.4121568 eV PBE+vdW (tier 2 basis)
N    0.186003  -0.269478  0.013485
C    -0.046399  -0.178136  1.457523
C    1.262135  0.103871  2.195617
O    1.416808  1.013486  2.983592
H    0.489986  0.629002  -0.362703
H    -0.686872  -0.507672  -0.459351
H    -0.708740  0.652669  1.759932
C    -0.682350  -1.501000  1.951507
C    -0.873941  -1.573569  3.434583
C    -1.890685  -0.993860  4.161847
C    -0.005012  -2.209316  4.390739
N    -1.702037  -1.232586  5.507951
C    -0.555161  -1.975444  5.684444
C    1.178643  -2.961958  4.287224
C    0.039586  -2.461702  6.851920
C    1.771967  -3.447572  5.445752
C    1.210502  -3.199088  6.715163
H    -0.053468  -2.330563  1.600075
H    -1.651571  -1.600884  1.436411
H    -2.745161  -0.418994  3.819655
H    -2.310515  -0.910590  6.247453
H    1.626204  -3.157273  3.312930
H    -0.395390  -2.270706  7.833366
H    2.688855  -4.032722  5.376464
H    1.702040  -3.592461  7.604546
O    2.243092  -0.787022  1.895921
H    2.999477  -0.540431  2.462955
