27
Energy: -18678.5782839 eV PBE+vdW (tier 2 basis)
N    -0.520348  -0.206059  0.058507
C    0.075794  -0.988491  1.158979
C    0.821667  -2.197296  0.542174
O    1.130173  -2.014917  -0.758061
H    -1.458539  -0.544019  -0.163210
H    0.684156  -1.151930  -0.984881
H    0.864787  -0.359651  1.601951
C    -0.888855  -1.418070  2.294875
C    -0.237205  -1.512342  3.639001
C    0.300328  -2.631004  4.233944
C    0.001457  -0.416197  4.540173
N    0.848289  -2.293318  5.454676
C    0.686608  -0.942360  5.674555
C    -0.292008  0.958373  4.506963
C    1.072059  -0.142049  6.752524
C    0.093106  1.758751  5.576520
C    0.768126  1.214537  6.687587
H    -1.357776  -2.375494  2.027664
H    -1.695370  -0.669531  2.341296
H    0.362613  -3.644592  3.854713
H    1.315822  -2.936525  6.078153
H    -0.818340  1.395056  3.656518
H    1.593126  -0.561329  7.613720
H    -0.129902  2.825405  5.560336
H    1.056739  1.867338  7.510831
O    1.121070  -3.199126  1.152279
H    -0.605524  0.777913  0.308403
