27
Energy: -18678.5946782 eV PBE+vdW (tier 2 basis)
N    0.351995  1.428904  -0.576997
C    0.002161  1.035996  0.779932
C    0.679849  -0.212957  1.354195
O    0.722177  -0.481852  2.538595
H    1.362123  1.522576  -0.678345
H    0.056650  0.700917  -1.230293
H    0.292233  1.847292  1.464976
C    -1.541772  0.881607  0.904886
C    -2.133232  -0.147589  -0.007816
C    -2.633130  0.080525  -1.272835
C    -2.273984  -1.562122  0.232625
N    -3.068933  -1.105771  -1.828856
C    -2.865181  -2.132587  -0.931883
C    -1.972383  -2.404856  1.317959
C    -3.147775  -3.497137  -1.038887
C    -2.253020  -3.761889  1.214733
C    -2.831948  -4.303740  0.049045
H    -1.966775  1.868818  0.679057
H    -1.781137  0.652045  1.952237
H    -2.716939  1.013979  -1.819807
H    -3.495676  -1.200280  -2.739823
H    -1.522085  -2.003760  2.225952
H    -3.599856  -3.914964  -1.938909
H    -2.024068  -4.422620  2.050638
H    -3.038710  -5.372538  0.000510
O    1.222729  -1.016220  0.399473
H    1.562688  -1.798779  0.875636
