27
Energy: -18678.5902557 eV PBE+vdW (tier 2 basis)
N    0.725100  -0.745856  -0.103029
C    -0.182531  -0.364829  0.981415
C    0.561569  0.250601  2.169039
O    1.444732  -0.301221  2.796401
H    1.174031  0.079513  -0.501670
H    1.472906  -1.336239  0.268339
H    -0.888455  0.381462  0.593838
C    -0.963843  -1.604124  1.468616
C    -1.956238  -1.297546  2.544753
C    -1.794313  -1.504878  3.896740
C    -3.243550  -0.674508  2.381567
N    -2.906003  -1.049633  4.578863
C    -3.815873  -0.536265  3.679160
C    -3.974618  -0.225377  1.268117
C    -5.077429  0.028727  3.883894
C    -5.229294  0.337897  1.467809
C    -5.774719  0.464295  2.761576
H    -0.235075  -2.346122  1.827951
H    -1.455000  -2.037537  0.585351
H    -0.955412  -1.940563  4.429572
H    -3.038897  -1.105494  5.578847
H    -3.566342  -0.319526  0.261105
H    -5.501952  0.125417  4.883624
H    -5.805452  0.688869  0.611960
H    -6.761128  0.910538  2.885038
O    0.147878  1.517736  2.440750
H    0.678413  1.818298  3.205454
