27
Energy: -18678.5095677 eV PBE+vdW (tier 2 basis)
N    1.892552  -1.500224  2.328918
C    1.085903  -1.477229  1.101175
C    1.436624  -0.281027  0.213292
O    2.043413  -0.340992  -0.837877
H    1.735554  -0.649304  2.871887
H    2.887278  -1.532062  2.103193
H    1.360150  -2.365510  0.515281
C    -0.401845  -1.534769  1.461231
C    -1.346377  -1.613486  0.300119
C    -1.063452  -1.851742  -1.028126
C    -2.775859  -1.466764  0.387588
N    -2.235039  -1.861195  -1.762555
C    -3.303503  -1.626431  -0.925938
C    -3.663648  -1.217789  1.448471
C    -4.671445  -1.539926  -1.197826
C    -5.025137  -1.131079  1.181994
C    -5.523682  -1.289963  -0.126844
H    -0.648855  -0.649533  2.070594
H    -0.531807  -2.404185  2.125758
H    -0.112209  -2.006484  -1.526086
H    -2.290040  -1.994441  -2.762438
H    -3.292370  -1.095195  2.466479
H    -5.059094  -1.663532  -2.209469
H    -5.722973  -0.937871  1.996457
H    -6.596477  -1.216480  -0.303356
O    1.050044  0.903749  0.768650
H    1.351293  1.599464  0.153427
