27
Energy: -18678.5616523 eV PBE+vdW (tier 2 basis)
N    0.120729  1.018983  1.460014
C    0.372219  -0.322093  1.969093
C    1.130740  -1.207396  0.982819
O    1.129712  -1.073402  -0.224091
H    0.968714  1.582829  1.513240
H    -0.117400  0.957624  0.466975
H    0.967570  -0.250857  2.889892
C    -0.972347  -1.028342  2.327152
C    -1.611713  -0.453607  3.546216
C    -2.592934  0.509673  3.597928
C    -1.267631  -0.757017  4.910441
N    -2.884081  0.813949  4.913490
C    -2.088520  0.055332  5.745683
C    -0.345671  -1.631803  5.511618
C    -2.015722  0.006625  7.139993
C    -0.268323  -1.680103  6.898848
C    -1.094667  -0.870781  7.704406
H    -0.783364  -2.102392  2.473628
H    -1.638222  -0.938865  1.456108
H    -3.100583  1.018590  2.785916
H    -3.576092  1.484733  5.216531
H    0.301125  -2.263120  4.900731
H    -2.653652  0.632202  7.765148
H    0.442627  -2.354270  7.376130
H    -1.010565  -0.932491  8.789089
O    1.797427  -2.217675  1.611050
H    2.206625  -2.754325  0.903954
