27
Energy: -18678.4725346 eV PBE+vdW (tier 2 basis)
N    1.303775  -0.806206  2.642148
C    0.550749  -1.059843  1.400106
C    1.573108  -1.088376  0.263287
O    1.719084  -0.263675  -0.610657
H    1.954228  -1.571662  2.822083
H    0.654204  -0.776741  3.429025
H    0.042784  -2.044373  1.388707
C    -0.499133  0.039212  1.179011
C    -1.505583  -0.303570  0.125368
C    -1.507925  0.112583  -1.186995
C    -2.646994  -1.167466  0.278581
N    -2.585537  -0.438186  -1.852727
C    -3.305867  -1.229562  -0.983997
C    -3.183800  -1.893257  1.356344
C    -4.463990  -1.984236  -1.187127
C    -4.335279  -2.646237  1.158022
C    -4.968579  -2.691956  -0.100422
H    0.019258  0.976190  0.938472
H    -1.014743  0.200239  2.139764
H    -0.801893  0.753560  -1.703395
H    -2.808231  -0.283710  -2.826035
H    -2.705991  -1.867208  2.336777
H    -4.956423  -2.019250  -2.159434
H    -4.759445  -3.212302  1.987122
H    -5.869969  -3.291478  -0.224492
O    2.363064  -2.198498  0.363960
H    3.016127  -2.130992  -0.359497
