27
Energy: -18678.5289108 eV PBE+vdW (tier 2 basis)
N    0.589061  -2.791037  1.687588
C    0.336364  -1.380840  1.444133
C    1.362854  -0.435521  2.085834
O    2.270268  -0.765524  2.822943
H    0.248953  -3.046413  2.616042
H    1.592276  -2.977187  1.688533
H    0.432794  -1.190969  0.360367
C    -1.113090  -1.006402  1.813610
C    -1.505575  -1.182659  3.253371
C    -0.707794  -1.259540  4.377238
C    -2.865473  -1.270738  3.720199
N    -1.497676  -1.388172  5.504555
C    -2.824832  -1.399423  5.138113
C    -4.116381  -1.249485  3.078794
C    -3.982083  -1.510853  5.913533
C    -5.269660  -1.359928  3.846372
C    -5.203614  -1.489402  5.248509
H    -1.764371  -1.636598  1.189100
H    -1.295423  0.032350  1.498655
H    0.372580  -1.234462  4.472990
H    -1.147937  -1.481260  6.447815
H    -4.184380  -1.147564  1.995303
H    -3.932192  -1.610098  6.998230
H    -6.244558  -1.345944  3.359613
H    -6.126220  -1.573584  5.822161
O    1.174976  0.853460  1.688481
H    1.878132  1.375793  2.120918
