27
Energy: -18678.5231199 eV PBE+vdW (tier 2 basis)
N    -0.103570  0.341082  -0.059699
C    -0.076323  0.055945  1.370295
C    1.344245  0.039376  1.908892
O    1.672378  0.405368  3.017758
H    -1.065903  0.290236  -0.397166
H    0.431637  -0.358786  -0.574955
H    -0.579234  0.882251  1.892231
C    -0.773161  -1.271261  1.831788
C    -2.220091  -1.317473  1.458834
C    -3.273999  -0.848006  2.214181
C    -2.792532  -1.810758  0.232047
N    -4.459359  -1.020554  1.528118
C    -4.202043  -1.610517  0.309796
C    -2.261121  -2.415405  -0.921971
C    -5.070741  -1.984757  -0.719194
C    -3.121713  -2.790178  -1.946016
C    -4.511821  -2.575219  -1.847322
H    -0.658482  -1.357157  2.922549
H    -0.236528  -2.122308  1.384701
H    -3.269445  -0.405179  3.204936
H    -5.374953  -0.772725  1.876637
H    -1.188568  -2.589631  -1.012371
H    -6.146125  -1.822011  -0.642350
H    -2.719232  -3.259534  -2.843321
H    -5.159889  -2.878775  -2.668900
O    2.226554  -0.512981  1.026799
H    3.091531  -0.512536  1.480420
