27
Energy: -18678.5305515 eV PBE+vdW (tier 2 basis)
N    0.041232  -0.324202  -0.370974
C    0.029381  -0.094983  1.085282
C    1.485803  0.039590  1.571081
O    2.369416  -0.612195  0.777730
H    -0.805937  -0.802637  -0.677720
H    1.823818  -0.893541  -0.004815
H    -0.489579  0.828087  1.386826
C    -0.675751  -1.300772  1.760925
C    -0.723399  -1.283292  3.254385
C    -1.697689  -0.700822  4.034907
C    0.231110  -1.865621  4.160226
N    -1.400516  -0.885715  5.369114
C    -0.225833  -1.599464  5.482037
C    1.427969  -2.582155  3.989405
C    0.467215  -2.031130  6.616050
C    2.118992  -3.014426  5.113722
C    1.644239  -2.743114  6.413112
H    -0.181664  -2.221719  1.412062
H    -1.702096  -1.328376  1.359064
H    -2.593079  -0.163442  3.739128
H    -1.960068  -0.553783  6.142019
H    1.822301  -2.781198  2.992568
H    0.103325  -1.816383  7.621216
H    3.051398  -3.565192  4.993115
H    2.212806  -3.092903  7.274370
O    1.812225  0.639575  2.567212
H    0.101814  0.553016  -0.887632
