27
Energy: -18678.4369408 eV PBE+vdW (tier 2 basis)
N    -0.990119  -0.604582  1.234679
C    -0.197611  -0.051061  2.327546
C    1.259878  0.164347  1.935959
O    2.165594  0.354786  2.721460
H    -1.983584  -0.537782  1.451974
H    -0.827056  -0.099909  0.365219
H    -0.521924  0.968433  2.637554
C    -0.287289  -0.936176  3.594709
C    0.212657  -2.338695  3.431296
C    1.502761  -2.770180  3.655036
C    -0.537127  -3.498518  3.026392
N    1.594968  -4.124947  3.406201
C    0.360782  -4.605367  3.024231
C    -1.879024  -3.723578  2.675384
C    -0.042257  -5.899475  2.683829
C    -2.286495  -5.009008  2.341058
C    -1.377596  -6.086794  2.342870
H    -1.341963  -0.948448  3.910898
H    0.269013  -0.425672  4.391729
H    2.371112  -2.202206  3.971391
H    2.433575  -4.679225  3.506975
H    -2.593069  -2.900192  2.658368
H    0.661380  -6.732636  2.686109
H    -3.325664  -5.191337  2.067548
H    -1.726897  -7.082982  2.072487
O    1.447823  0.191541  0.587908
H    2.398136  0.376665  0.458189
