27
Energy: -18678.444941 eV PBE+vdW (tier 2 basis)
N    0.322938  1.555639  2.820739
C    0.407001  0.155771  2.385176
C    -0.521100  -0.009773  1.183895
O    -0.189627  -0.369130  0.074594
H    1.026445  1.737531  3.537054
H    -0.589908  1.741278  3.239319
H    1.419815  -0.005207  1.991678
C    0.113715  -0.882721  3.490962
C    0.311844  -2.327892  3.141398
C    0.775536  -2.884266  1.968185
C    0.057199  -3.427085  4.036472
N    0.822273  -4.260543  2.089998
C    0.386588  -4.627388  3.344022
C    -0.414940  -3.514464  5.357288
C    0.253237  -5.888743  3.930144
C    -0.548706  -4.767684  5.944108
C    -0.218792  -5.942008  5.238069
H    -0.917951  -0.724304  3.848132
H    0.765590  -0.622753  4.343658
H    1.062594  -2.410818  1.035538
H    1.106213  -4.895773  1.357530
H    -0.674384  -2.614066  5.915423
H    0.509071  -6.798451  3.386135
H    -0.914923  -4.848041  6.967392
H    -0.335050  -6.909725  5.725318
O    -1.808690  0.300662  1.502875
H    -2.325989  0.183954  0.682897
