27
Energy: -18678.5364334 eV PBE+vdW (tier 2 basis)
N    -0.931171  -1.877060  0.883358
C    -0.195871  -0.703705  1.325686
C    1.070319  -1.168709  2.024750
O    1.253351  -2.267575  2.500121
H    -0.975586  -2.563614  1.638095
H    -1.886713  -1.628929  0.632496
H    0.116348  -0.120960  0.443437
C    -0.960351  0.294403  2.266252
C    -1.375398  -0.281249  3.582302
C    -0.646520  -0.245895  4.751998
C    -2.571939  -1.026800  3.876669
N    -1.317255  -0.926507  5.746931
C    -2.502203  -1.418805  5.245620
C    -3.707997  -1.391843  3.132301
C    -3.510200  -2.161229  5.866811
C    -4.714132  -2.127239  3.746111
C    -4.614891  -2.512273  5.098758
H    -1.842431  0.641499  1.706195
H    -0.323174  1.177729  2.417705
H    0.313600  0.218725  4.951445
H    -0.988008  -1.046226  6.694628
H    -3.805726  -1.098425  2.086502
H    -3.435203  -2.455281  6.914082
H    -5.597207  -2.413527  3.175393
H    -5.418626  -3.092790  5.550586
O    1.995993  -0.167698  2.106488
H    2.751991  -0.549016  2.593281
