27
Energy: -18678.5363127 eV PBE+vdW (tier 2 basis)
N    -1.400282  -0.215534  1.574315
C    0.044017  -0.127713  1.734235
C    0.698357  -0.541007  0.423297
O    0.118648  -0.671914  -0.634683
H    -1.666155  0.055672  0.627902
H    -1.878997  0.386193  2.241579
H    0.411241  0.908149  1.906242
C    0.532269  -0.973419  2.938685
C    0.038750  -0.461483  4.257651
C    0.730304  0.378397  5.104293
C    -1.226784  -0.724147  4.896500
N    -0.031830  0.655355  6.222454
C    -1.235487  -0.009707  6.130194
C    -2.350278  -1.500981  4.558054
C    -2.317933  -0.050549  7.013743
C    -3.426119  -1.545628  5.436113
C    -3.411875  -0.828311  6.650058
H    1.629697  -0.981469  2.936721
H    0.194414  -2.008252  2.780186
H    1.726258  0.796795  4.998972
H    0.262828  1.226742  7.001920
H    -2.377457  -2.042755  3.613255
H    -2.306540  0.503462  7.952909
H    -4.301324  -2.143981  5.183647
H    -4.273179  -0.883932  7.315345
O    2.045545  -0.705631  0.543725
H    2.363914  -0.924350  -0.353314
