27
Energy: -18678.5952842 eV PBE+vdW (tier 2 basis)
N    0.128270  -0.557998  2.790481
C    0.020144  -0.814652  1.363920
C    1.119341  -0.056944  0.646113
O    1.604867  0.991111  1.019330
H    -0.758765  -0.776457  3.246955
H    0.332523  0.431799  2.942757
H    0.165907  -1.889087  1.175424
C    -1.346923  -0.399482  0.710413
C    -2.503231  -1.097599  1.343700
C    -3.375270  -0.573229  2.274447
C    -2.895764  -2.470233  1.150966
N    -4.285728  -1.537158  2.662389
C    -4.020260  -2.712261  1.991244
C    -2.413459  -3.517045  0.346068
C    -4.661581  -3.952709  2.043968
C    -3.048301  -4.752149  0.396296
C    -4.159547  -4.967843  1.236296
H    -1.306402  -0.625230  -0.366513
H    -1.456532  0.690483  0.812793
H    -3.425908  0.431284  2.681933
H    -5.040889  -1.395292  3.318523
H    -1.556096  -3.364158  -0.310226
H    -5.522467  -4.121111  2.691493
H    -2.683749  -5.571241  -0.223029
H    -4.634925  -5.948146  1.252969
O    1.472607  -0.659905  -0.522773
H    2.134138  -0.072750  -0.937937
