27
Energy: -18678.4517485 eV PBE+vdW (tier 2 basis)
N    2.035166  0.664816  3.067776
C    0.968819  -0.313827  2.824763
C    0.723221  -0.298171  1.318030
O    0.397505  0.687111  0.691084
H    1.736524  1.581205  2.727184
H    2.203219  0.753389  4.070360
H    1.354544  -1.304200  3.104100
C    -0.348301  -0.029722  3.580407
C    -1.428986  -1.064323  3.471546
C    -1.340569  -2.365379  3.024677
C    -2.798447  -0.869380  3.872807
N    -2.573815  -2.982403  3.127843
C    -3.490796  -2.092415  3.642105
C    -3.508291  0.220222  4.406263
C    -4.850965  -2.246707  3.922820
C    -4.861294  0.070812  4.687151
C    -5.525610  -1.149127  4.447958
H    -0.731134  0.941876  3.227396
H    -0.082158  0.117998  4.641924
H    -0.495048  -2.911712  2.622194
H    -2.773494  -3.930216  2.840921
H    -3.007853  1.170364  4.595801
H    -5.366481  -3.189742  3.738692
H    -5.422398  0.909415  5.098862
H    -6.587257  -1.234316  4.678275
O    0.921931  -1.511735  0.737648
H    0.737969  -1.385832  -0.214586
