27
Energy: -18678.5475609 eV PBE+vdW (tier 2 basis)
N    -0.786251  0.007409  -0.097141
C    -0.400572  -0.086906  1.301595
C    1.100738  0.127916  1.392515
O    1.886882  -0.031135  0.484493
H    -0.090037  -0.466006  -0.675639
H    -1.689931  -0.435996  -0.255688
H    -0.882649  0.725920  1.868733
C    -0.788774  -1.424004  2.027698
C    -0.080662  -2.638069  1.520875
C    -0.421728  -3.394369  0.419745
C    1.135249  -3.209747  2.040809
N    0.510374  -4.394914  0.227784
C    1.478501  -4.311060  1.204708
C    1.964131  -2.911611  3.136882
C    2.610471  -5.099127  1.429317
C    3.089601  -3.693782  3.364437
C    3.411702  -4.774542  2.518500
H    -1.877763  -1.531759  1.907168
H    -0.609878  -1.299905  3.105680
H    -1.273265  -3.301603  -0.246158
H    0.479178  -5.087425  -0.507227
H    1.727835  -2.078861  3.799481
H    2.858115  -5.936899  0.776875
H    3.737566  -3.471952  4.212232
H    4.302871  -5.367330  2.722684
O    1.483154  0.491604  2.648767
H    2.458881  0.533859  2.625321
