16
Energy: -168057.1420188  eV PBE+vdW (tier 2 basis)
N    0.092258  -0.924289  -0.247644
C    -0.185953  -0.159799  1.012731
C    1.182076  0.229646  1.610345
O    2.210715  -0.333135  1.310705
H    0.989085  -1.415554  -0.099784
H    0.280693  -0.240160  -0.985495
H    -0.759480  0.730974  0.735121
C    -0.988149  -0.910709  2.146401
C    -1.841875  -1.877487  1.352589
O    -2.749531  -1.378813  0.608267
O    -1.342045  -3.040456  1.184959
H    -1.574895  -0.171359  2.699613
H    -0.324505  -1.459014  2.821381
O    1.044650  1.221516  2.496983
H    1.924623  1.424292  2.877208
Cd    -1.593668  -2.495655  -0.973380
