16
Energy: -168057.2508944  eV PBE+vdW (tier 2 basis)
N    0.438491  0.164316  0.576390
C    0.134772  0.028169  1.955243
C    1.268941  -0.579294  2.832513
O    2.115855  -1.310324  2.245997
H    0.511068  1.121032  0.243895
H    -1.056505  -2.253921  0.118086
H    -0.230180  0.968383  2.383193
C    -1.019995  -1.049679  2.226320
C    -0.573817  -2.463605  1.952101
O    -0.085157  -3.224561  2.809470
O    -0.676022  -2.927891  0.716031
H    -1.856876  -0.766897  1.576543
H    -1.322945  -0.969394  3.274898
O    1.067147  -0.577560  4.089105
H    1.228163  -0.397068  0.262131
Cd    1.759060  -2.715706  4.037085
