16
Energy: -168057.2692179  eV PBE+vdW (tier 2 basis)
N    0.400884  -0.251384  0.533257
C    0.133170  -0.086839  2.011064
C    1.309772  -0.685884  2.799194
O    2.114781  -1.413429  2.151484
H    0.026507  0.517968  -0.030604
H    -0.061037  -1.193734  0.260846
H    -0.075487  0.961364  2.248570
C    -1.059253  -1.022393  2.389388
C    -0.670268  -2.449548  1.956116
O    -0.334464  -3.342448  2.852756
O    -0.631722  -2.659829  0.732908
H    -1.954340  -0.713966  1.832790
H    -1.251755  -0.928424  3.460657
O    1.186214  -0.685812  4.067459
H    1.412706  -0.360055  0.372061
Cd    1.453293  -2.914587  3.911057
