16
Energy: -168057.3095568  eV PBE+vdW (tier 2 basis)
N    -0.294148  0.736847  0.453375
C    0.167775  -0.245780  1.496413
C    1.709513  -0.418228  1.113076
O    2.021909  0.174617  0.062692
H    0.661154  0.761887  -0.132357
H    -0.513188  1.661279  0.834279
H    0.115470  0.223877  2.485678
C    -0.735669  -1.508323  1.488505
C    0.017161  -2.511444  2.342793
O    0.669129  -3.423177  1.743161
O    0.195885  -2.193284  3.567316
H    -0.857678  -1.906789  0.473961
H    -1.712553  -1.264440  1.924222
O    2.546686  -1.017470  1.870700
H    -1.088873  0.408356  -0.102261
Cd    2.327427  -2.769928  3.128446
