16
Energy: -168057.3715855  eV PBE+vdW (tier 2 basis)
N    0.145564  0.828367  0.517325
C    0.248442  -0.076462  1.668761
C    1.791727  -0.243738  1.940384
O    2.332016  -0.821466  2.909102
H    -0.345114  0.416869  -0.275399
H    -0.298998  1.715509  0.747919
H    -0.149195  0.397857  2.577851
C    -0.556102  -1.391628  1.435080
C    -0.106681  -2.345760  2.520445
O    -0.374412  -2.017775  3.727141
O    0.749801  -3.235327  2.206107
H    -0.332600  -1.817626  0.450202
H    -1.624904  -1.164671  1.518168
O    2.519479  0.387124  1.074093
H    1.794962  0.817141  0.466489
Cd    1.744016  -2.607414  4.111334
