16
Energy: -168057.1174932  eV PBE+vdW (tier 2 basis)
N    -0.356326  -0.039355  -0.148098
C    -0.390044  -0.016279  1.272199
C    0.973377  -0.151619  1.969754
O    1.189904  0.158068  3.149604
H    0.381683  -0.566354  -0.600529
H    -0.625997  0.805805  -0.635973
H    -0.809120  0.933666  1.631010
C    -1.403567  -1.152036  1.768307
C    -1.274813  -1.204946  3.275031
O    -1.704529  -0.208644  3.946579
O    -0.504737  -2.099870  3.760419
H    -1.134520  -2.110583  1.315224
H    -2.402845  -0.842349  1.447831
O    1.923399  -0.633351  1.179881
H    2.761637  -0.699303  1.682694
Cd    0.137499  -0.496848  5.191067
