16
Energy: -168056.9381446  eV PBE+vdW (tier 2 basis)
N    -0.059482  -0.206131  -0.108175
C    0.142380  -0.037000  1.309567
C    1.651594  -0.172787  1.696805
O    2.400751  -1.130661  1.442540
H    0.579803  0.333016  -0.689054
H    -0.071403  -1.185139  -0.396795
H    -0.158051  0.991050  1.578100
C    -0.812193  -0.962166  2.127052
C    -0.165382  -2.332522  2.112905
O    0.514017  -2.681322  3.131480
O    -0.076286  -2.925320  0.978781
H    -1.782964  -0.956669  1.618126
H    -0.919173  -0.612355  3.157341
O    2.233654  0.887187  2.240158
H    1.594594  1.611383  2.385633
Cd    2.014483  -3.377371  1.621340
