16
Energy: -168057.1172744  eV PBE+vdW (tier 2 basis)
N    -0.033325  0.786993  0.258085
C    -0.273057  0.105286  1.509261
C    0.973650  -0.739871  1.902466
O    1.501456  -1.699678  1.306089
H    -0.123573  0.185516  -0.561120
H    0.830797  1.324255  0.232220
H    -0.363969  0.856355  2.307043
C    -1.623116  -0.663741  1.489956
C    -1.354687  -1.960407  0.753596
O    -1.174560  -3.015300  1.443115
O    -1.021206  -1.870921  -0.482660
H    -2.347908  -0.033892  0.961462
H    -1.970982  -0.878653  2.503646
O    1.579882  -0.211544  2.956241
H    2.412148  -0.698082  3.140045
Cd    0.526330  -3.386204  0.038240
