16
Energy: -168057.1899457  eV PBE+vdW (tier 2 basis)
N    0.048972  -1.124292  -0.021206
C    0.268636  -0.268770  1.166323
C    1.779019  -0.367582  1.497439
O    2.487719  -1.283298  1.080664
H    0.451085  -0.703083  -0.861438
H    -0.948334  -1.293606  -0.177040
H    0.032282  0.784498  0.938553
C    -0.640861  -0.698161  2.372544
C    -0.424259  -2.215887  2.420907
O    0.697435  -2.585714  2.913907
O    -1.131253  -2.911683  1.637290
H    -1.683349  -0.438005  2.161161
H    -0.309341  -0.201167  3.290663
O    2.328096  0.584752  2.229506
H    1.692891  1.283551  2.477515
Cd    1.101261  -3.175554  0.772212
