16
Energy: -168057.0158506  eV PBE+vdW (tier 2 basis)
N    -0.358013  0.308626  0.227456
C    0.045500  -0.105595  1.523497
C    1.528789  0.249436  1.688458
O    2.145940  0.907144  0.885117
H    0.336748  0.816371  -0.318941
H    -1.333539  0.515393  0.049054
H    -0.510879  0.400196  2.339839
C    -0.226168  -1.629886  1.676823
C    -0.208384  -2.083854  3.136115
O    0.249279  -3.248254  3.363815
O    -0.678243  -1.321609  4.036067
H    0.466935  -2.235106  1.082529
H    -1.245108  -1.847423  1.319710
O    2.048600  -0.262194  2.825627
H    2.988415  0.008774  2.857233
Cd    -0.185771  -2.952737  5.550074
