36
Energy: -108382.287083 eV PBE+vdW (tier 2 basis)
C    0.211147  -0.846432  0.601850
C    -0.092286  -0.198217  1.917428
O    0.840526  0.269960  2.631304
H    -0.666512  -1.288056  0.118738
H    0.976568  -1.619763  0.742651
H    0.640540  -0.089225  -0.068993
N    -1.376811  -0.137619  2.307603
C    -1.885463  0.590134  3.482088
C    -0.932231  0.439130  4.680642
O    -0.470345  1.554858  5.146619
H    -2.069531  -0.524633  1.671884
H    -1.857204  1.665215  3.248617
C    -3.348660  0.207689  3.774703
C    -4.062180  1.171377  4.735706
C    -3.708334  1.080700  6.223953
N    -4.144073  -0.186831  6.835549
C    -3.454731  -0.944416  7.703071
N    -4.128386  -1.726848  8.562768
N    -2.115732  -0.945179  7.721659
H    -3.422297  -0.826423  4.140617
H    -3.894033  0.234636  2.818644
H    -5.147158  1.024723  4.624455
H    -3.878953  2.210671  4.424860
H    -4.211095  1.902470  6.755458
H    -2.636617  1.208406  6.405813
H    -5.142481  -0.374656  6.791377
H    -3.673960  -2.491216  9.047754
H    -5.101834  -1.554455  8.784412
H    -1.632754  -1.372819  8.502074
N    -0.454831  -0.686994  5.187272
C    -0.780986  -2.011646  4.658215
H    -1.546448  -0.669586  6.909800
H    -0.059785  -2.318871  3.883491
H    -1.784631  -2.099120  4.223023
H    -0.700773  -2.745599  5.469413
Sr    1.653465  0.716667  4.789856
