36
Energy: -108381.431155 eV PBE+vdW (tier 2 basis)
C    0.228556  -0.535736  0.175207
C    0.037066  -0.437808  1.652535
O    1.029597  -0.531906  2.441620
H    0.897201  0.275294  -0.146528
H    -0.707164  -0.470788  -0.389247
H    0.733146  -1.480221  -0.067028
N    -1.196727  -0.237876  2.132963
C    -1.524433  0.026559  3.544927
C    -1.428053  -1.276967  4.375182
O    -0.313551  -1.491758  4.977131
H    -1.955099  -0.149792  1.460113
H    -0.705239  0.642334  3.946630
C    -2.817314  0.841597  3.653343
C    -3.246448  1.104164  5.101162
C    -4.726142  1.521437  5.178018
N    -5.252193  1.431977  6.526556
C    -5.659428  0.203700  7.022741
N    -6.430682  0.284319  8.157622
N    -5.320816  -0.886883  6.398123
H    -3.631356  0.331510  3.118445
H    -2.646797  1.789390  3.120229
H    -2.610532  1.873015  5.563449
H    -3.147192  0.191097  5.704373
H    -5.312851  0.872663  4.504803
H    -4.851148  2.556175  4.833855
H    -5.790262  2.231162  6.839821
H    -6.607633  -0.569488  8.670915
H    -6.399351  1.121211  8.728296
H    -5.684710  -1.705733  6.890241
N    -2.390582  -2.172639  4.467212
C    -3.755455  -2.193780  3.927753
H    -2.155229  -2.946391  5.090116
H    -4.063598  -3.242221  3.865795
H    -3.782889  -1.773759  2.918973
H    -4.436259  -1.652465  4.618965
Sr    1.872055  -1.183365  4.454898
