36
Energy: -108380.905503 eV PBE+vdW (tier 2 basis)
C    -0.042530  -0.375462  -0.477761
C    0.147157  0.086235  0.930530
O    1.320937  0.254180  1.396832
H    -0.772906  -1.189535  -0.564630
H    0.917860  -0.684298  -0.898940
H    -0.430469  0.458869  -1.080982
N    -0.908908  0.338862  1.737431
C    -2.101573  -0.519168  1.835055
C    -1.614485  -1.956089  2.195060
O    -0.379798  -2.153578  2.508927
H    -0.636388  0.793311  2.607908
H    -2.627870  -0.149500  2.729144
C    -3.071224  -0.438420  0.626760
C    -4.534645  -0.094098  0.945321
C    -5.291822  -0.968344  1.946424
N    -5.177949  -2.443739  1.752280
C    -5.561628  -3.025803  0.492360
N    -6.663135  -3.839922  0.576201
N    -4.786718  -2.823121  -0.510594
H    -3.062348  -1.375873  0.052527
H    -2.702911  0.352655  -0.037008
H    -5.063416  -0.105539  -0.016027
H    -4.608166  0.938325  1.321469
H    -6.347167  -0.652684  1.939310
H    -4.928015  -0.787371  2.970648
H    -5.676027  -2.908042  2.513271
H    -7.397018  -3.638273  1.246692
H    -6.978721  -4.305692  -0.267848
H    -5.154900  -3.229637  -1.374423
N    -2.490681  -2.924490  2.186982
C    -2.168070  -4.306877  2.528271
H    -3.521647  -2.724806  1.945822
H    -3.088891  -4.894044  2.468915
H    -1.760505  -4.379163  3.544342
H    -1.441229  -4.722297  1.819078
Sr    1.795738  -1.547283  2.769378
