36
Energy: -108382.188363 eV PBE+vdW (tier 2 basis)
C    -1.836193  0.890457  1.890369
C    -0.679158  -0.025126  1.660819
O    0.429263  0.427304  1.225676
H    -1.756762  1.330529  2.895525
H    -2.804364  0.384127  1.817514
H    -1.796592  1.703518  1.158115
N    -0.779313  -1.336295  1.897756
C    -1.819623  -2.086078  2.612171
C    -2.146784  -1.425805  3.975232
O    -1.258743  -0.871555  4.648144
H    0.050476  -1.865566  1.644516
H    -2.725133  -2.111676  1.985982
C    -1.347552  -3.550422  2.810045
C    -0.327815  -3.881963  3.919921
C    1.113006  -3.368079  3.784290
N    1.199527  -1.930811  4.077104
C    2.144924  -1.061863  3.723979
N    3.162798  -1.434333  2.798386
N    2.188157  0.221140  4.036263
H    -0.982443  -3.915743  1.835675
H    -2.248832  -4.143101  3.016193
H    -0.718689  -3.589159  4.906102
H    -0.259489  -4.978085  3.953145
H    1.482698  -3.587797  2.766867
H    1.754112  -3.923579  4.484564
H    0.333308  -1.502183  4.472853
H    4.090230  -1.323919  3.214553
H    3.084519  -2.383008  2.433149
H    1.532892  0.475893  4.778126
N    -3.419567  -1.546090  4.372810
C    -3.918575  -1.095507  5.670828
H    -4.083870  -1.982764  3.740394
H    -4.404421  -1.927819  6.193252
H    -4.644465  -0.283864  5.538582
H    -3.073730  -0.734163  6.262420
Sr    2.562409  1.061016  1.798985
