36
Energy: -108380.251035 eV PBE+vdW (tier 2 basis)
C    0.768257  1.379492  1.091387
C    0.424516  0.819331  2.431818
O    1.317992  0.652408  3.319932
H    0.799052  2.480056  1.134547
H    0.060239  1.082334  0.311237
H    1.777117  1.043868  0.823661
N    -0.856176  0.504584  2.731204
C    -1.996658  1.357487  2.395690
C    -1.767106  2.729464  3.081279
O    -0.893032  2.834185  4.010024
H    -0.967182  -0.020053  3.599995
H    -2.035902  1.499413  1.305750
C    -3.314143  0.716279  2.882568
C    -3.766397  -0.550137  2.141635
C    -2.942145  -1.837371  2.409123
N    -3.697858  -3.056832  2.297334
C    -4.626396  -3.416433  3.281336
N    -5.388345  -4.511359  2.932026
N    -4.825842  -2.828285  4.414662
H    -4.107203  1.471274  2.802631
H    -3.217240  0.510439  3.963803
H    -3.821758  -0.356683  1.059332
H    -4.797769  -0.744275  2.468347
H    -2.526059  -1.806699  3.433558
H    -2.084908  -1.905929  1.725296
H    -3.884642  -3.395564  1.358884
H    -5.984667  -4.837942  3.685843
H    -4.935627  -5.257608  2.414422
H    -4.291044  -1.963605  4.509766
N    -2.475498  3.785709  2.720832
C    -3.507184  3.903199  1.686314
H    -2.293284  4.627069  3.269298
H    -3.413855  3.106517  0.943677
H    -3.383091  4.866868  1.180978
H    -4.507465  3.865979  2.136611
Sr    1.017662  2.116648  5.100386
