36
Energy: -108380.376889 eV PBE+vdW (tier 2 basis)
C    -1.242356  -0.390653  -0.711267
C    -0.868895  0.135060  0.626324
O    0.222019  0.778310  0.791460
H    -1.439040  -1.470928  -0.690309
H    -0.437223  -0.183960  -1.421420
H    -2.180920  0.085303  -1.078038
N    -1.664769  -0.027198  1.714606
C    -2.359992  -1.255952  2.115083
C    -1.276070  -2.348959  2.361631
O    -0.037382  -2.044571  2.344649
H    -1.396171  0.575641  2.490372
H    -2.783457  -1.022014  3.104883
C    -3.534232  -1.687281  1.208258
C    -4.470413  -0.522687  0.873387
C    -5.360842  -0.789910  -0.359031
N    -5.882944  0.435082  -0.944896
C    -5.015064  1.411666  -1.434975
N    -3.983546  0.887674  -2.258056
N    -5.191841  2.635287  -1.102119
H    -4.100105  -2.476439  1.727879
H    -3.152787  -2.147062  0.285332
H    -3.875098  0.375687  0.657299
H    -5.092232  -0.266678  1.743968
H    -6.212035  -1.434421  -0.104188
H    -4.780246  -1.336144  -1.118080
H    -6.621749  0.882251  -0.405030
H    -3.529693  1.627576  -2.790419
H    -4.320577  0.168866  -2.900895
H    -4.621245  3.287458  -1.647435
N    -1.693798  -3.575411  2.614622
C    -0.855298  -4.730225  2.938583
H    -2.699304  -3.733089  2.591650
H    -1.016969  -5.521232  2.196646
H    -1.124134  -5.111018  3.931226
H    0.194107  -4.430283  2.932991
Sr    1.679186  -0.524121  2.011044
