36
Energy: -108381.133226 eV PBE+vdW (tier 2 basis)
C    0.040607  -1.579969  0.111976
C    -0.122339  -0.845983  1.400867
O    0.893899  -0.463765  2.064297
H    0.581605  -0.933873  -0.594099
H    -0.910590  -1.881551  -0.338231
H    0.664488  -2.469027  0.272900
N    -1.357536  -0.584820  1.845171
C    -1.677358  0.252430  3.014586
C    -1.361973  -0.516974  4.318974
O    -0.229421  -0.283314  4.870401
H    -2.143300  -0.889410  1.272853
H    -0.952719  1.081983  3.022484
C    -3.085097  0.830483  2.853463
C    -3.549597  1.748133  3.994753
C    -5.069187  2.014720  3.962711
N    -5.860965  0.858668  4.358222
C    -6.301508  -0.116205  3.459323
N    -6.928865  -1.188292  4.074910
N    -6.065385  -0.177169  2.190673
H    -3.810767  0.018667  2.706433
H    -3.081072  1.400867  1.911155
H    -3.017624  2.710979  3.940984
H    -3.311035  1.308677  4.976309
H    -5.373166  2.384745  2.968761
H    -5.295532  2.825417  4.665453
H    -6.421670  0.986214  5.194057
H    -7.496521  -1.735217  3.434485
H    -7.373127  -1.031192  4.973318
H    -5.686403  0.700024  1.829950
N    -2.169918  -1.410648  4.861261
C    -3.496582  -1.893721  4.454493
H    -1.803751  -1.805818  5.728241
H    -3.641994  -2.877438  4.909967
H    -3.572671  -2.003701  3.369744
H    -4.286623  -1.218375  4.806119
Sr    1.883193  0.010378  4.054778
