36
Energy: -108382.274238 eV PBE+vdW (tier 2 basis)
C    -1.527912  -0.729971  2.044226
C    -1.623381  0.213179  3.202219
O    -0.992618  -0.011304  4.274559
H    -0.677832  -0.456219  1.399645
H    -2.435119  -0.745802  1.430324
H    -1.327683  -1.734745  2.431406
N    -2.378969  1.336357  3.112395
C    -2.443487  2.154257  1.912158
C    -1.029147  2.754656  1.669994
O    -0.130957  2.639268  2.552660
H    -2.481649  1.833481  4.009192
H    -2.642934  1.482358  1.063518
C    -3.622561  3.176014  1.953418
C    -3.426921  4.646949  2.380069
C    -3.416000  5.033357  3.871471
N    -2.116664  4.872553  4.529367
C    -1.683412  3.867288  5.313669
N    -2.595789  2.893312  5.686441
N    -0.422927  3.679579  5.673867
H    -4.413490  2.707313  2.557620
H    -4.036660  3.208391  0.938391
H    -4.277992  5.191811  1.946227
H    -2.538711  5.085261  1.897739
H    -4.191756  4.488128  4.425089
H    -3.688695  6.093415  3.958108
H    -1.399792  5.529805  4.237268
H    -3.575365  3.165698  5.703156
H    -2.329970  2.414408  6.544130
H    0.135593  4.518880  5.489759
N    -0.763472  3.351658  0.510600
C    -1.634190  3.523375  -0.654681
H    0.186412  3.712166  0.430372
H    -2.257794  4.421848  -0.563566
H    -2.274117  2.646485  -0.801049
H    -1.001274  3.629204  -1.540722
Sr    0.630678  1.689507  4.645451
