36
Energy: -108382.296608 eV PBE+vdW (tier 2 basis)
C    -0.072836  -0.149650  0.042640
C    -0.104755  -0.280180  1.529722
O    0.962514  -0.493951  2.186377
H    0.799762  -0.682021  -0.346888
H    -0.980622  -0.534703  -0.435748
H    0.023530  0.913108  -0.226853
N    -1.256556  -0.168612  2.201916
C    -2.562514  0.277488  1.715226
C    -2.478799  1.740224  1.204948
O    -1.580804  2.505826  1.607581
H    -1.169794  -0.317015  3.203794
H    -2.855790  -0.378651  0.883158
C    -3.627206  0.098910  2.828332
C    -3.749217  1.141785  3.957679
C    -2.604696  1.283914  4.973311
N    -1.488948  2.049488  4.411687
C    -0.186912  1.788009  4.536689
N    0.680878  2.421312  3.580437
N    0.429378  0.955379  5.345669
H    -3.485220  -0.906589  3.255647
H    -4.604283  0.056471  2.329807
H    -4.643449  0.865561  4.533431
H    -3.978995  2.136245  3.541313
H    -2.236806  0.297537  5.300875
H    -2.979235  1.794366  5.872028
H    -1.728713  2.677482  3.641392
H    1.081758  3.281016  3.966227
H    0.159837  2.653102  2.721739
H    -0.151862  0.581300  6.096999
N    -3.415673  2.151820  0.337794
C    -4.545239  1.422832  -0.237418
H    -3.326893  3.135129  0.085303
H    -5.435781  1.483429  0.402499
H    -4.295700  0.370207  -0.409788
H    -4.787193  1.868334  -1.207384
Sr    2.289448  0.331091  3.876518
