36
Energy: -108381.803792 eV PBE+vdW (tier 2 basis)
C    1.006628  -3.160089  0.359169
C    0.121853  -3.201544  1.571906
O    -0.527977  -4.210312  1.877466
H    1.897385  -3.771370  0.564902
H    1.335837  -2.151513  0.084016
H    0.487171  -3.625358  -0.485619
N    0.058007  -2.051584  2.328670
C    -0.339057  -1.994527  3.744718
C    -1.839609  -2.228821  4.012214
O    -2.433899  -1.598064  4.955451
H    0.709387  -1.324353  2.050655
H    0.145955  -2.840506  4.270185
C    0.211822  -0.706904  4.384297
C    -0.026146  0.650066  3.695309
C    -1.438306  1.234540  3.671742
N    -2.314210  0.587337  2.684804
C    -3.667029  0.759131  2.633322
N    -4.227770  0.771719  1.403719
N    -4.378323  0.844410  3.757464
H    1.299992  -0.840501  4.465700
H    -0.149881  -0.664395  5.420362
H    0.372664  0.659100  2.666818
H    0.600022  1.381906  4.225173
H    -1.379193  2.314376  3.460864
H    -1.885101  1.148022  4.672603
H    -1.865700  0.394710  1.793486
H    -3.690044  0.992583  0.573532
H    -5.233953  0.734950  1.293196
H    -5.314221  1.200901  3.548756
N    -2.445041  -3.162769  3.317035
C    -3.828537  -3.558874  3.527115
H    -1.804085  -3.727975  2.682555
H    -4.508392  -2.713338  3.345258
H    -3.982283  -3.943035  4.545530
H    -4.075585  -4.352837  2.816955
Sr    -3.972793  -0.262747  5.864745
