36
Energy: -108380.035356 eV PBE+vdW (tier 2 basis)
C    -1.140984  1.410926  -0.250489
C    -0.748753  0.815311  1.035764
O    0.501721  0.916564  1.441899
H    -2.184178  1.748660  -0.244435
H    -1.064645  0.642112  -1.089303
H    -0.484106  2.247050  -0.509524
N    -1.571995  0.142487  1.801480
C    -2.995770  -0.129526  1.614600
C    -3.420773  -0.627749  3.026743
O    -2.532190  -0.893433  3.849070
H    -1.288679  -0.257735  2.724794
H    -3.515428  0.812149  1.376007
C    -3.252689  -1.172671  0.499033
C    -4.576026  -0.982230  -0.255858
C    -4.505652  -1.519689  -1.698415
N    -3.468030  -0.850262  -2.480023
C    -2.208124  -1.362723  -2.719200
N    -2.184664  -2.691285  -3.075643
N    -1.171171  -0.585387  -2.566396
H    -3.182249  -2.185635  0.919641
H    -2.428872  -1.081194  -0.220044
H    -4.828151  0.091385  -0.305067
H    -5.414575  -1.472704  0.261292
H    -5.481951  -1.385535  -2.184310
H    -4.292698  -2.595886  -1.693994
H    -3.458995  0.163984  -2.427112
H    -1.282379  -3.092724  -3.300239
H    -2.949891  -3.041831  -3.643465
H    -0.331801  -0.986756  -2.991112
N    -4.735257  -0.763848  3.241810
C    -5.304144  -1.270777  4.488908
H    -5.376830  -0.489986  2.504833
H    -5.946398  -0.510907  4.949978
H    -4.483538  -1.512558  5.169038
H    -5.894962  -2.174534  4.297157
Sr    2.515067  1.183102  2.052124
