36
Energy: -108380.848757 eV PBE+vdW (tier 2 basis)
C    -1.500037  0.416527  0.863893
C    -1.708940  0.518614  2.320214
O    -0.949629  1.267766  3.028836
H    -2.448257  0.570885  0.335370
H    -1.123209  -0.583876  0.519553
H    -0.775522  1.176340  0.556999
N    -2.738851  -0.096412  2.980681
C    -3.085158  -1.526243  3.026699
C    -2.201349  -2.168711  4.123309
O    -1.096093  -1.623098  4.462639
H    -2.888293  0.349051  3.886495
H    -4.134184  -1.574581  3.358719
C    -2.930204  -2.307260  1.715718
C    -3.971047  -1.951003  0.637470
C    -3.432674  -2.135191  -0.797093
N    -2.630534  -3.330950  -1.002677
C    -1.255572  -3.295855  -1.044710
N    -0.681534  -4.386521  -1.657045
N    -0.607161  -2.319082  -0.466136
H    -3.019098  -3.375038  1.954727
H    -1.906954  -2.198000  1.326826
H    -4.306237  -0.907495  0.739407
H    -4.868287  -2.569171  0.786332
H    -2.807648  -1.278998  -1.078729
H    -4.280079  -2.155741  -1.495130
H    -3.085011  -4.143799  -1.399160
H    0.327636  -4.394946  -1.738731
H    -1.162575  -4.822438  -2.436858
H    0.387218  -2.361347  -0.695324
N    -2.583546  -3.289434  4.714667
C    -3.795986  -4.082889  4.501673
H    -1.914791  -3.661986  5.388912
H    -4.602667  -3.467427  4.094565
H    -4.120194  -4.485349  5.466958
H    -3.595402  -4.917987  3.818283
Sr    0.331043  0.173196  4.576128
