36
Energy: -108382.044395 eV PBE+vdW (tier 2 basis)
C    -0.207035  -1.325365  1.134960
C    -0.333931  -0.338927  2.259538
O    0.628072  -0.000736  2.961862
H    0.389590  -0.861713  0.336780
H    -1.167296  -1.644638  0.714424
H    0.351532  -2.200881  1.484930
N    -1.585161  0.182979  2.490656
C    -1.815183  1.382755  3.296682
C    -1.713104  1.138623  4.820894
O    -2.579616  1.627604  5.625965
H    -2.329347  -0.111274  1.869147
H    -0.970864  2.068022  3.092771
C    -3.092956  2.119448  2.846706
C    -4.396384  1.323919  2.643714
C    -5.165721  0.788682  3.850713
N    -5.846680  1.898640  4.618743
C    -6.772345  1.411791  5.612191
N    -8.025313  1.137937  5.220397
N    -6.270598  1.318287  6.812789
H    -2.853662  2.583193  1.879646
H    -3.256280  2.967165  3.528509
H    -4.220298  0.457778  1.987961
H    -5.076671  1.956750  2.050370
H    -4.519020  0.245165  4.550279
H    -5.925409  0.076863  3.492671
H    -6.340331  2.491021  3.943997
H    -8.734169  0.840317  5.884319
H    -8.295864  1.143776  4.243264
H    -6.890718  0.892911  7.504749
N    -0.655786  0.485490  5.240134
C    -0.348755  0.213285  6.638697
H    0.031519  0.236314  4.478897
H    -1.196377  -0.275621  7.134071
H    -0.103168  1.140470  7.174156
H    0.517019  -0.452936  6.677446
Sr    -4.257584  2.718434  6.640357
