36
Energy: -108379.766698 eV PBE+vdW (tier 2 basis)
C    -0.492768  -2.020574  1.063646
C    -0.606373  -1.384270  2.407973
O    0.206505  -1.775116  3.351017
H    0.562885  -2.066754  0.769324
H    -1.057457  -1.491558  0.291040
H    -0.865438  -3.053933  1.121365
N    -1.482737  -0.457384  2.688461
C    -2.568182  0.129022  1.892756
C    -2.926359  1.385549  2.743105
O    -2.589451  1.393180  3.936124
H    -1.532295  -0.015451  3.637273
H    -2.197862  0.423356  0.899624
C    -3.730254  -0.885449  1.783945
C    -4.969888  -0.428765  1.010703
C    -5.993840  -1.567559  0.802615
N    -6.514276  -2.146758  2.023983
C    -5.961123  -3.220967  2.691137
N    -6.522170  -3.485381  3.923924
N    -4.951041  -3.948110  2.307278
H    -4.012717  -1.183756  2.803668
H    -3.323106  -1.788093  1.305064
H    -4.690215  -0.051316  0.012752
H    -5.468290  0.396502  1.540072
H    -5.553806  -2.365666  0.186093
H    -6.841379  -1.177138  0.224128
H    -7.302347  -1.676445  2.454021
H    -6.293384  -4.408766  4.276727
H    -7.483336  -3.208371  4.091530
H    -4.653099  -3.703882  1.360938
N    -3.587881  2.369474  2.122388
C    -4.034740  3.591022  2.788928
H    -3.784077  2.270408  1.131663
H    -5.126883  3.676540  2.735483
H    -3.581527  4.468656  2.312893
H    -3.725701  3.545528  3.836254
Sr    1.472943  -2.521639  4.933936
