36
Energy: -108380.813252 eV PBE+vdW (tier 2 basis)
C    1.268588  1.164349  0.138723
C    1.162623  1.243832  1.621979
O    2.200628  1.508998  2.322080
H    2.144984  1.746847  -0.165661
H    0.362906  1.506750  -0.386806
H    1.442732  0.122513  -0.175555
N    -0.000201  1.058323  2.294883
C    -0.984963  -0.011823  2.087293
C    -0.378734  -1.308574  2.686731
O    0.842314  -1.359898  3.056653
H    0.076045  1.352441  3.268970
H    -1.855334  0.264815  2.702293
C    -1.456572  -0.179220  0.632592
C    -2.877018  -0.716563  0.432563
C    -3.384868  -0.357154  -0.982870
N    -3.693201  1.049786  -1.161454
C    -2.846444  1.970423  -1.748399
N    -3.504770  3.056839  -2.279493
N    -1.555487  1.800900  -1.705838
H    -0.749358  -0.801971  0.066390
H    -1.423453  0.812392  0.152823
H    -3.568527  -0.281076  1.171692
H    -2.926930  -1.814367  0.537288
H    -4.294606  -0.936055  -1.189996
H    -2.633995  -0.649061  -1.731331
H    -4.663304  1.323521  -1.069312
H    -2.939845  3.785188  -2.698383
H    -4.408597  2.920939  -2.719454
H    -1.089023  2.480727  -2.309950
N    -1.169181  -2.360682  2.794832
C    -0.756830  -3.666725  3.315373
H    -2.127129  -2.262113  2.465361
H    -0.394729  -3.570288  4.345586
H    0.033273  -4.098492  2.689577
H    -1.624574  -4.331000  3.304631
Sr    2.861461  -0.336689  3.519648
