36
Energy: -108382.074771 eV PBE+vdW (tier 2 basis)
C    -0.484258  1.882994  -0.887621
C    0.011175  1.041091  0.239189
O    1.271976  0.903681  0.431319
H    -0.223910  1.404438  -1.842337
H    0.039163  2.847352  -0.864249
H    -1.563790  2.055754  -0.859646
N    -0.803408  0.419191  1.074405
C    -2.249348  0.236554  1.133550
C    -2.438614  -0.421000  2.529799
O    -1.482907  -1.059333  3.012151
H    -0.379668  -0.117199  1.846915
H    -2.750763  1.213785  1.088892
C    -2.826966  -0.686379  0.026615
C    -2.665077  -2.210788  0.187332
C    -1.370627  -2.885038  -0.274884
N    -0.188872  -2.573813  0.540271
C    1.036464  -3.098677  0.305956
N    1.143112  -4.068403  -0.626543
N    2.106662  -2.609767  0.957975
H    -2.434458  -0.357780  -0.947446
H    -3.905472  -0.476897  -0.008426
H    -3.452213  -2.672817  -0.424926
H    -2.892638  -2.521465  1.218052
H    -1.566178  -3.971321  -0.255667
H    -1.153519  -2.608390  -1.318645
H    -0.355443  -2.212274  1.480769
H    2.052626  -4.408777  -0.911291
H    0.339225  -4.596671  -0.944527
H    2.840526  -3.325952  0.969921
N    -3.643982  -0.309375  3.090926
C    -4.016883  -0.928878  4.362208
H    -4.336272  0.273987  2.630187
H    -3.187958  -1.555552  4.700415
H    -4.914206  -1.544299  4.229168
H    -4.218783  -0.156996  5.114676
Sr    2.955251  -0.381388  1.229409
