36
Energy: -108380.716924 eV PBE+vdW (tier 2 basis)
C    0.152498  -1.880057  0.608651
C    -0.021025  -1.168690  1.908044
O    0.835112  -1.298170  2.838323
H    -0.372089  -1.393483  -0.221662
H    -0.275271  -2.895747  0.723908
H    1.214682  -1.986116  0.368124
N    -1.134458  -0.432679  2.068244
C    -1.778972  0.050235  3.311641
C    -1.052109  1.261939  3.908033
O    0.124087  1.144638  4.382021
H    -1.738487  -0.407341  1.251292
H    -2.770354  0.381022  2.980753
C    -1.997613  -1.028531  4.400825
C    -3.011478  -2.132687  4.057465
C    -2.636302  -2.975097  2.836884
N    -3.351284  -4.242121  2.787154
C    -3.091590  -5.084366  1.679041
N    -1.714002  -5.218294  1.409349
N    -3.942044  -5.684861  0.941782
H    -2.340120  -0.501983  5.304858
H    -1.032798  -1.491839  4.660855
H    -4.012649  -1.691104  3.929960
H    -3.079119  -2.795048  4.933297
H    -1.561414  -3.203827  2.871448
H    -2.805904  -2.393850  1.906554
H    -4.353850  -4.147338  2.939583
H    -1.596992  -5.896406  0.656789
H    -1.183262  -5.517541  2.227825
H    -4.911028  -5.422539  1.142841
N    -1.674010  2.428797  3.980110
C    -3.019052  2.792534  3.513687
H    -1.137343  3.162366  4.443883
H    -3.142191  2.572108  2.447198
H    -3.138707  3.870675  3.650767
H    -3.794186  2.284173  4.100046
Sr    1.910501  -0.262259  4.531203
