36
Energy: -108383.107156 eV PBE+vdW (tier 2 basis)
C    -1.572409  0.235796  -0.215903
C    -1.806741  -0.065201  1.233406
O    -1.883110  -1.251451  1.640641
H    -1.489909  1.304543  -0.439107
H    -2.401836  -0.187095  -0.799196
H    -0.657497  -0.272724  -0.545996
N    -1.935888  0.991100  2.068363
C    -2.274221  0.972609  3.506294
C    -1.071978  0.472170  4.331470
O    -0.742125  -0.741581  4.348171
H    -1.853083  1.908155  1.640903
H    -2.428565  2.028348  3.768737
C    -3.614833  0.242142  3.755432
C    -4.036906  -0.014259  5.211894
C    -3.506181  -1.280918  5.894277
N    -3.743412  -2.501840  5.050079
C    -3.366673  -3.735628  5.682641
N    -4.302999  -4.368568  6.412196
N    -2.147593  -4.125913  5.440690
H    -3.635252  -0.694733  3.186861
H    -4.378017  0.874033  3.281571
H    -5.136571  -0.053741  5.226324
H    -3.779976  0.840021  5.856659
H    -4.006702  -1.384108  6.869885
H    -2.429757  -1.227347  6.093566
H    -4.731491  -2.533281  4.783301
H    -4.122546  -5.276539  6.828646
H    -5.183668  -3.927911  6.651058
H    -1.863822  -4.953775  5.968837
N    -0.407334  1.394607  5.025243
C    0.775235  1.132784  5.843881
H    -0.718745  2.359179  4.956197
H    0.678213  1.658562  6.799858
H    1.679133  1.485814  5.331109
H    0.856069  0.057534  6.020068
Sr    -1.462527  -2.793343  3.412406
