36
Energy: -108382.513575 eV PBE+vdW (tier 2 basis)
C    -0.327807  -0.748514  1.017470
C    -0.849832  -0.927260  2.412292
O    -0.331502  -1.761064  3.192676
H    -0.305298  -1.722455  0.512257
H    0.710969  -0.394651  1.071576
H    -0.909266  -0.044091  0.413572
N    -1.893310  -0.155487  2.784344
C    -2.572455  -0.106760  4.093073
C    -1.574073  0.291612  5.211591
O    -0.886571  -0.584804  5.801785
H    -2.242020  0.489181  2.082211
H    -3.300937  0.704268  3.980102
C    -3.339655  -1.370499  4.523997
C    -4.190773  -2.113848  3.472600
C    -3.671061  -3.523446  3.106685
N    -3.321542  -4.303726  4.308558
C    -2.050077  -4.496168  4.748767
N    -1.017934  -4.657362  3.797584
N    -1.603553  -4.470660  5.981034
H    -3.981375  -1.048167  5.356184
H    -2.633894  -2.067648  4.986552
H    -4.286656  -1.541236  2.538946
H    -5.215231  -2.216159  3.855091
H    -2.781672  -3.444086  2.469824
H    -4.432632  -4.061845  2.528636
H    -4.012210  -4.249164  5.054923
H    -0.481075  -5.499104  4.013463
H    -1.311375  -4.683636  2.823877
H    -2.337358  -4.402166  6.689852
N    -1.463540  1.576393  5.540440
C    -2.171391  2.730814  4.978202
H    -0.799919  1.761198  6.291830
H    -2.002345  2.816905  3.898068
H    -1.772123  3.632057  5.451452
H    -3.247013  2.686660  5.190661
Sr    0.134484  -2.698758  5.325997
