36
Energy: -108382.651515 eV PBE+vdW (tier 2 basis)
C    0.185775  -1.235814  0.937163
C    -0.441555  -0.232791  1.851758
O    0.161988  0.815341  2.192749
H    0.522377  -0.728860  0.023663
H    -0.482122  -2.060880  0.668541
H    1.082840  -1.646150  1.421053
N    -1.694736  -0.478952  2.307167
C    -2.377476  0.446703  3.207076
C    -1.834787  0.328512  4.652955
O    -0.960077  1.155750  5.025545
H    -2.149733  -1.346207  2.036012
H    -2.031016  1.437099  2.902325
C    -3.905468  0.464072  3.086284
C    -4.475728  1.095388  1.796169
C    -3.795844  2.374490  1.257172
N    -3.423743  3.339786  2.304967
C    -2.175950  3.804560  2.560837
N    -1.183402  3.706826  1.556513
N    -1.703215  4.262325  3.693412
H    -4.274958  1.023739  3.958257
H    -4.329813  -0.546847  3.193458
H    -5.539339  1.300434  1.980378
H    -4.458886  0.370425  0.970191
H    -4.462143  2.848889  0.523943
H    -2.886067  2.087480  0.715309
H    -4.093747  3.463510  3.059403
H    -0.746621  4.619555  1.416779
H    -1.488046  3.344917  0.655890
H    -2.406896  4.392289  4.422934
N    -2.298480  -0.639072  5.436034
C    -1.859310  -0.891740  6.809371
H    -3.018038  -1.251213  5.061269
H    -2.727993  -0.899701  7.477591
H    -1.171627  -0.099097  7.112215
H    -1.351492  -1.862156  6.868772
Sr    0.314004  2.695033  3.687654
