36
Energy: -108381.248653 eV PBE+vdW (tier 2 basis)
C    0.470467  0.838142  0.902328
C    0.375051  0.540765  2.341476
O    1.412777  0.222326  3.010823
H    -0.379282  1.413087  0.518346
H    0.476557  -0.157471  0.370494
H    1.412725  1.345944  0.674000
N    -0.835932  0.576005  2.935832
C    -1.202107  0.014640  4.251947
C    -0.617683  0.872321  5.389369
O    0.569916  0.686223  5.805004
H    -1.611545  0.796292  2.318090
H    -2.293402  0.115458  4.300476
C    -0.855995  -1.483059  4.423350
C    -1.914147  -2.469362  3.894417
C    -2.321179  -2.349661  2.421491
N    -1.173610  -2.337278  1.535005
C    -1.216637  -2.023276  0.179719
N    -2.477006  -1.766928  -0.327890
N    -0.080396  -1.885669  -0.426039
H    -0.722101  -1.685348  5.496003
H    0.108121  -1.685302  3.933976
H    -2.827880  -2.388072  4.501771
H    -1.531234  -3.484247  4.081500
H    -2.894176  -1.422590  2.252956
H    -3.023436  -3.178105  2.212301
H    -0.391501  -2.943065  1.758842
H    -2.510426  -1.563668  -1.321622
H    -3.248988  -2.352998  -0.021611
H    -0.186375  -1.780290  -1.437524
N    -1.372917  1.802589  5.955774
C    -2.750275  2.191124  5.629648
H    -0.920443  2.307137  6.718227
H    -2.840765  2.483743  4.577283
H    -3.007773  3.057662  6.244740
H    -3.457615  1.385797  5.863577
Sr    2.571028  0.020779  4.908880
