36
Energy: -108382.651291 eV PBE+vdW (tier 2 basis)
C    0.485512  0.509983  1.388494
C    -0.036374  0.480142  2.788616
O    0.672085  0.846649  3.763736
H    0.253831  1.480667  0.922086
H    0.062585  -0.283060  0.761880
H    1.576159  0.419113  1.419667
N    -1.314783  0.070462  3.030901
C    -2.449948  0.408538  2.185417
C    -2.613270  1.957413  2.179595
O    -2.030474  2.675074  3.041878
H    -1.527932  -0.036829  4.028541
H    -2.229558  0.105362  1.151171
C    -3.728119  -0.355905  2.631917
C    -3.960306  -0.501940  4.143021
C    -4.199061  0.803513  4.926573
N    -4.011017  0.646895  6.364789
C    -2.809015  0.433220  6.955682
N    -2.828820  -0.120592  8.188534
N    -1.672824  0.762466  6.330511
H    -3.663761  -1.365328  2.205065
H    -4.599171  0.117829  2.156497
H    -3.121306  -1.049676  4.599017
H    -4.827473  -1.162723  4.279754
H    -5.224572  1.162454  4.774621
H    -3.551029  1.614158  4.572799
H    -4.840502  0.482837  6.924041
H    -2.004038  -0.115392  8.774846
H    -3.671815  -0.511363  8.592260
H    -0.900025  0.301065  6.822159
N    -3.373477  2.487964  1.232032
C    -3.635893  3.923731  1.096384
H    -3.790080  1.865614  0.544876
H    -2.699038  4.469528  0.933743
H    -4.124840  4.310419  1.998109
H    -4.293852  4.075467  0.237075
Sr    -0.589472  2.504720  4.948451
