36
Energy: -108381.237304 eV PBE+vdW (tier 2 basis)
C    0.092730  0.114643  0.091153
C    0.108451  -0.235634  1.546830
O    1.227535  -0.469069  2.107474
H    -0.758455  0.734629  -0.196267
H    0.084331  -0.797627  -0.524105
H    1.025738  0.645888  -0.130068
N    -1.014870  -0.262064  2.307182
C    -2.248800  -1.037163  2.033937
C    -1.929461  -2.528088  2.365440
O    -0.697440  -2.929289  2.111829
H    -0.763985  -0.325437  3.295477
H    -2.969298  -0.688985  2.784548
C    -2.854570  -0.815322  0.632191
C    -4.280076  -1.363749  0.466059
C    -5.395280  -0.514267  1.121778
N    -6.512264  -1.347482  1.597899
C    -6.319528  -2.292451  2.532790
N    -7.041490  -3.417715  2.536524
N    -5.376928  -2.131641  3.490403
H    -2.222884  -1.294578  -0.126348
H    -2.846621  0.264061  0.420222
H    -4.315210  -2.384855  0.868993
H    -4.490642  -1.455533  -0.607424
H    -5.818573  0.204004  0.411152
H    -5.012536  0.093556  1.954471
H    -7.355255  -1.383072  1.031981
H    -7.096022  -3.965634  3.388277
H    -7.633612  -3.684965  1.758380
H    -5.114276  -1.160457  3.633652
N    -2.863199  -3.251409  2.883617
C    -2.558226  -4.652009  3.168897
H    -4.507446  -2.734973  3.421666
H    -2.077774  -5.157746  2.318848
H    -3.484118  -5.183287  3.413872
H    -1.888884  -4.741728  4.039716
Sr    1.483095  -2.766928  2.430385
