36
Energy: -108382.549 eV PBE+vdW (tier 2 basis)
C    -0.419713  -0.116196  -0.420049
C    -0.174969  -0.146478  1.054018
O    0.985411  -0.301502  1.525720
H    -0.314043  0.913885  -0.795638
H    -1.415134  -0.482890  -0.692912
H    0.347432  -0.719761  -0.916670
N    -1.208238  0.001603  1.924053
C    -2.289442  0.962648  1.764476
C    -1.679716  2.384130  1.920595
O    -0.506914  2.516169  2.378942
H    -0.916103  -0.081877  2.905877
H    -2.698052  0.872747  0.747668
C    -3.437280  0.666875  2.756848
C    -3.187749  0.833084  4.269872
C    -2.361356  -0.251373  4.987645
N    -0.900952  -0.032519  4.920499
C    -0.244575  0.924182  5.701830
N    -0.932600  1.507605  6.700539
N    0.993827  1.220581  5.359447
H    -3.776587  -0.357962  2.545338
H    -4.282145  1.314637  2.490643
H    -2.770242  1.827705  4.493036
H    -4.181079  0.828172  4.739969
H    -2.547451  -1.234976  4.536368
H    -2.703330  -0.349903  6.030480
H    -0.350208  -0.888113  4.870623
H    -0.512354  2.253750  7.242654
H    -1.766628  1.083071  7.089608
H    1.473540  1.731255  6.105787
N    -2.385753  3.452988  1.565737
C    -3.720208  3.530495  0.968284
H    -1.911089  4.340209  1.731154
H    -3.739649  4.377549  0.274877
H    -4.488849  3.688589  1.735609
H    -3.951697  2.623674  0.401535
Sr    1.589749  1.509551  2.973914
