36
Energy: -108381.125672 eV PBE+vdW (tier 2 basis)
C    -0.283145  -2.604186  0.247284
C    -0.316135  -1.754753  1.474801
O    0.734345  -1.165859  1.882350
H    0.013734  -1.976533  -0.604978
H    -1.242993  -3.080012  0.022021
H    0.487742  -3.378169  0.356695
N    -1.474163  -1.616365  2.131975
C    -1.720978  -0.701580  3.259153
C    -1.107602  -1.248458  4.569432
O    0.104765  -0.915348  4.826507
H    -2.287483  -2.098257  1.754955
H    -1.138513  0.212147  3.059037
C    -3.201804  -0.336070  3.348383
C    -3.722281  0.671270  2.321137
C    -5.218766  0.983087  2.567823
N    -5.493957  1.484230  3.900109
C    -5.728842  0.672791  5.005378
N    -5.707798  1.342272  6.210308
N    -5.850837  -0.619658  5.010723
H    -3.377870  0.077815  4.349546
H    -3.803749  -1.253894  3.300014
H    -3.611765  0.297015  1.290508
H    -3.145476  1.607058  2.389523
H    -5.825630  0.086957  2.357113
H    -5.546568  1.740628  1.845940
H    -5.739376  2.464318  3.974814
H    -6.207179  0.873635  6.958246
H    -5.779955  2.352424  6.218719
H    -5.986023  -0.983261  4.065255
N    -1.758439  -2.008290  5.433428
C    -3.110021  -2.592422  5.413227
H    -1.201442  -2.224880  6.260781
H    -3.159584  -3.310221  6.236447
H    -3.280468  -3.137042  4.477995
H    -3.903241  -1.836182  5.550621
Sr    1.996983  -0.482146  3.647217
