36
Energy: -108382.010658 eV PBE+vdW (tier 2 basis)
C    -0.277126  -1.970235  -0.258171
C    -0.254311  -2.235185  1.217929
O    0.603253  -3.057318  1.704760
H    0.705157  -1.600484  -0.581326
H    -1.039447  -1.240469  -0.548247
H    -0.472049  -2.910018  -0.792827
N    -1.133223  -1.596983  1.967165
C    -1.459583  -1.737705  3.385686
C    -3.015241  -1.570513  3.388670
O    -3.533832  -1.003138  2.424489
H    -1.901737  -1.066230  1.512740
H    -1.157856  -2.736490  3.733192
C    -0.832385  -0.607395  4.237084
C    0.698906  -0.623127  4.321606
C    1.245614  -1.647812  5.332884
N    2.619816  -2.041624  5.000576
C    2.935928  -3.198325  4.399279
N    4.068523  -3.222217  3.545534
N    2.247898  -4.318444  4.381577
H    -1.270349  -0.646863  5.245990
H    -1.163062  0.349140  3.808688
H    1.053521  0.380098  4.595508
H    1.120946  -0.837145  3.328607
H    0.634588  -2.558535  5.334554
H    1.222969  -1.253034  6.356445
H    3.329311  -1.314915  5.051269
H    4.758009  -3.919433  3.834377
H    4.524840  -2.322763  3.392904
H    1.526230  -4.371156  5.100923
N    -3.672201  -2.022663  4.468701
C    -5.114835  -1.865504  4.653132
H    -3.148128  -2.485690  5.203151
H    -5.525455  -1.397663  3.754516
H    -5.323141  -1.227317  5.520544
H    -5.586010  -2.844174  4.801264
Sr    2.215117  -4.626630  1.973917
