36
Energy: -108382.316443 eV PBE+vdW (tier 2 basis)
C    0.290965  0.428801  1.379741
C    -0.694132  -0.436480  2.096863
O    -0.320819  -1.346710  2.882012
H    0.584247  1.273129  2.023384
H    -0.096663  0.828045  0.436667
H    1.197585  -0.157141  1.192255
N    -2.031910  -0.232754  1.914502
C    -2.636833  1.094701  1.883124
C    -2.213382  1.840589  3.178952
O    -1.887644  1.176491  4.203904
H    -2.611784  -0.945666  2.358971
H    -2.273279  1.636956  0.998118
C    -4.190400  1.023820  1.856073
C    -4.833713  -0.069099  0.966727
C    -5.526610  -1.210532  1.735920
N    -4.604744  -2.019977  2.544922
C    -4.245085  -1.850359  3.844366
N    -4.932324  -0.948488  4.610792
N    -3.185671  -2.433406  4.395931
H    -4.541221  2.010567  1.529327
H    -4.539018  0.919661  2.892800
H    -4.095511  -0.495671  0.271718
H    -5.600005  0.392486  0.329520
H    -6.017862  -1.887756  1.025870
H    -6.332351  -0.819720  2.372876
H    -4.086465  -2.733301  2.040371
H    -4.918929  -1.155838  5.604475
H    -5.835817  -0.623042  4.283776
H    -2.852664  -3.214225  3.821961
N    -2.248585  3.166254  3.154184
C    -1.966053  4.049406  4.286048
H    -2.495780  3.611976  2.273682
H    -1.090857  4.671992  4.064444
H    -1.768885  3.441721  5.171579
H    -2.829131  4.699371  4.471768
Sr    -1.282590  -0.992972  5.062346
