36
Energy: -108381.766096 eV PBE+vdW (tier 2 basis)
C    -0.485073  0.036331  -0.214078
C    -0.145176  0.594429  1.126865
O    0.996966  1.055790  1.375582
H    -0.027811  0.623612  -1.016667
H    -1.561433  -0.077376  -0.373279
H    -0.041534  -0.971972  -0.259187
N    -1.101979  0.553190  2.125315
C    -2.274077  1.468673  1.966688
C    -1.553269  2.845710  1.962460
O    -0.944700  3.127900  3.080466
H    -0.658096  0.778897  3.021289
H    -2.752924  1.259152  1.003759
C    -3.263561  1.249405  3.107690
C    -4.511222  2.136638  3.009078
C    -5.529691  1.770094  4.098433
N    -6.791215  2.515553  4.012279
C    -7.155254  3.565752  4.758987
N    -8.436003  3.964487  4.764273
N    -6.259618  4.228776  5.503500
H    -2.747663  1.433747  4.062670
H    -3.552897  0.187921  3.097346
H    -4.987381  2.013400  2.023574
H    -4.234780  3.200026  3.090745
H    -5.112167  1.910696  5.105343
H    -5.788675  0.704523  4.027643
H    -7.472199  2.186740  3.334791
H    -8.705225  4.867739  5.135469
H    -9.178908  3.363683  4.427986
H    -5.265413  4.091181  5.382175
N    -1.223655  3.523223  0.885378
C    -1.848199  3.352213  -0.417242
H    -6.556716  4.863939  6.234286
H    -1.099982  3.067528  -1.170758
H    -2.270167  4.313320  -0.740213
H    -2.656641  2.607085  -0.443437
Sr    1.037434  3.458145  1.910312
