31
Energy: -173741.0838342  eV PBE+vdW (tier 2 basis)
C    -2.22835  0.90854  -0.58721
C    -1.50873  0.11027  0.44336
O    -0.30175  -0.21944  0.19928
H    -3.25894  1.15116  -0.30509
H    -2.22282  0.36312  -1.54185
H    -1.67153  1.84267  -0.76030
N    -2.15471  -0.21173  1.58791
C    -1.53499  -0.82646  2.76113
C    -1.36192  -2.36393  2.59183
O    -0.17226  -2.80153  2.35177
H    -3.13214  0.06596  1.63818
H    -0.48926  -0.48381  2.75606
C    -2.01482  -0.25124  4.13839
C    -3.45432  -0.14869  4.55635
N    -4.00731  -0.90370  5.59042
C    -4.42260  0.77246  4.22807
C    -5.24183  -0.47160  5.87842
N    -5.50678  0.53832  5.04648
H    -1.60750  0.77024  4.16809
H    -1.45512  -0.79900  4.91086
H    -3.53437  -1.62949  6.12709
H    -4.41041  1.60390  3.53258
H    -5.89828  -0.86112  6.65165
H    -6.37522  1.07637  5.05307
N    -2.32993  -3.25380  2.66584
C    -3.76470  -3.09484  2.89401
H    -2.01421  -4.21666  2.50645
H    -4.30217  -3.62196  2.09530
H    -4.05069  -2.04101  2.87963
H    -4.04533  -3.55060  3.85207
Cd    1.02698  -1.69937  0.97116
