31
Energy: -173741.3510134  eV PBE+vdW (tier 2 basis)
C    -0.19895  1.91490  0.82261
C    -0.23693  1.31155  2.18396
O    0.65063  1.68657  3.02190
H    0.76406  1.67568  0.34759
H    -0.22980  3.01072  0.91999
H    -1.01932  1.58430  0.17588
N    -1.20978  0.42139  2.47061
C    -1.52449  -0.16814  3.77987
C    -0.54242  -1.32220  4.14113
O    0.43711  -1.05651  4.94175
H    -1.81437  0.17274  1.69005
H    -1.31499  0.60065  4.53846
C    -3.03585  -0.53761  3.90102
C    -3.99164  0.59540  4.14537
N    -4.40787  0.99563  5.41501
C    -4.72651  1.35452  3.26743
C    -5.34804  1.94430  5.31913
N    -5.54192  2.17324  4.01813
H    -3.13896  -1.26802  4.71715
H    -3.36796  -1.06567  2.99762
H    -4.11442  0.59647  6.30513
H    -4.76673  1.35478  2.18462
H    -5.86317  2.42747  6.14434
H    -6.21974  2.84050  3.64625
N    -0.64933  -2.56210  3.71099
C    -1.64010  -3.21355  2.84332
H    0.08832  -3.17772  4.06934
H    -2.49168  -3.58400  3.42872
H    -1.14947  -4.07173  2.37181
H    -1.97817  -2.53899  2.05121
Cd    1.54949  0.73241  4.69260
