31
Energy: -173740.7772716  eV PBE+vdW (tier 2 basis)
C    -0.22661  -0.47238  -0.24051
C    -0.17138  -0.37191  1.24290
O    0.79768  -0.85689  1.92851
H    0.71571  -0.09432  -0.66508
H    -1.04913  0.07851  -0.70436
H    -0.30894  -1.53205  -0.52671
N    -1.14848  0.19184  1.98259
C    -2.52828  0.53762  1.61889
C    -2.85516  1.91542  2.30440
O    -3.68625  1.96442  3.20757
H    -0.94899  0.18004  2.98818
H    -2.59046  0.64839  0.52860
C    -3.51376  -0.57180  2.10622
C    -4.96182  -0.43487  1.75318
N    -5.85322  0.39876  2.41315
C    -5.72903  -1.16540  0.86697
C    -7.09595  0.20150  1.96337
N    -7.02918  -0.74875  1.02077
H    -3.42672  -0.64634  3.20155
H    -3.16507  -1.52524  1.68782
H    -5.57252  1.08305  3.11988
H    -5.45730  -1.95357  0.17449
H    -7.99314  0.71346  2.29810
H    -7.83502  -1.11337  0.51132
N    -2.17088  2.99157  1.85832
C    -2.41770  4.34268  2.34885
H    -1.57873  2.89199  1.03643
H    -2.74355  4.29310  3.39386
H    -3.20663  4.83930  1.75990
H    -1.49667  4.92832  2.24560
Cd    2.91038  -1.23100  1.57303
