31
Energy: -173741.3454418  eV PBE+vdW (tier 2 basis)
C    -1.55982  2.34733  2.30257
C    -0.86791  1.05743  2.59178
O    0.40974  1.05946  2.55792
H    -2.64719  2.25253  2.20717
H    -1.14410  2.77957  1.38102
H    -1.32799  3.06275  3.10700
N    -1.62932  -0.02407  2.84978
C    -1.29229  -1.45306  3.04982
C    -0.51189  -1.71604  4.35821
O    0.77589  -1.62640  4.41268
H    -2.62717  0.17684  2.86243
H    -2.26846  -1.93520  3.17144
C    -0.59498  -2.12150  1.82065
C    -1.49595  -2.43979  0.66157
N    -2.05826  -3.69852  0.45098
C    -1.88464  -1.68459  -0.41800
C    -2.74904  -3.71470  -0.69587
N    -2.65398  -2.49337  -1.22681
H    -0.11288  -3.04854  2.16413
H    0.21597  -1.48269  1.44806
H    -1.93312  -4.52513  1.03323
H    -1.65525  -0.66219  -0.69219
H    -3.27816  -4.56426  -1.11795
H    -3.07566  -2.21894  -2.11536
N    -1.13081  -2.13090  5.44564
C    -2.53637  -2.44704  5.72373
H    -0.49365  -2.29416  6.23382
H    -3.19628  -2.12878  4.91338
H    -2.82922  -1.92306  6.64280
H    -2.64086  -3.52721  5.89149
Cd    1.88468  -0.01679  3.62288
