31
Energy: -173740.5220930  eV PBE+vdW (tier 2 basis)
C    0.29880  -0.39223  1.58738
C    -0.29940  -0.09065  2.91863
O    0.43037  0.14628  3.96146
H    0.79411  0.51148  1.19825
H    -0.42206  -0.73272  0.83911
H    1.06057  -1.17716  1.69851
N    -1.61060  -0.03935  3.13625
C    -2.72309  -0.08482  2.16684
C    -3.71408  1.01505  2.63977
O    -3.98631  1.06665  3.85178
H    -1.90046  0.22296  4.08608
H    -2.33342  0.15565  1.17215
C    -3.41880  -1.46845  2.04296
C    -4.07123  -2.13868  3.21983
N    -4.67992  -1.52149  4.29836
C    -4.31981  -3.49405  3.37786
C    -5.27355  -2.43288  5.07987
N    -5.06010  -3.63390  4.52377
H    -2.69543  -2.18110  1.62070
H    -4.18676  -1.34933  1.25637
H    -4.64333  -0.49932  4.46045
H    -4.04602  -4.34191  2.75954
H    -5.82408  -2.23658  5.99509
H    -5.40951  -4.51634  4.90081
N    -4.26422  1.84999  1.74333
C    -4.06482  1.92162  0.29852
H    -4.92792  2.50946  2.15896
H    -4.38388  0.99430  -0.20085
H    -3.01403  2.12848  0.04870
H    -4.67500  2.74163  -0.09076
Cd    2.53436  0.31665  4.28229
