31
Energy: -173741.5121545  eV PBE+vdW (tier 2 basis)
C    -0.62766  -3.83228  1.96546
C    -0.66933  -2.39431  2.34727
O    0.24790  -1.63221  1.88462
H    -1.44062  -4.42316  2.40207
H    0.34432  -4.26081  2.24830
H    -0.68678  -3.90009  0.86690
N    -1.67691  -1.96214  3.13322
C    -2.10660  -0.57212  3.40021
C    -1.33406  0.00689  4.61502
O    -0.18008  0.54648  4.43792
H    -2.29357  -2.69788  3.47637
H    -1.80574  0.03851  2.53403
C    -3.65384  -0.56536  3.46531
C    -4.34325  0.77175  3.44044
N    -5.70271  0.85696  3.14698
C    -3.93689  2.06427  3.65903
C    -6.10909  2.13133  3.18237
N    -5.04410  2.87310  3.49066
H    -4.00740  -1.14869  4.33495
H    -3.99266  -1.13335  2.58410
H    -6.32548  0.07889  2.92976
H    -2.97270  2.48325  3.91729
H    -7.11666  2.49101  2.99270
H    -5.06016  3.88947  3.58360
N    -1.85126  -0.05117  5.82318
C    -1.20268  0.38973  7.06935
H    -2.78580  -0.44442  5.92232
H    -1.15385  -0.46076  7.76120
H    -1.80407  1.18543  7.52669
H    -0.19900  0.75946  6.85213
Cd    1.09776  0.06422  2.80457
