31
Energy: -173741.3444532  eV PBE+vdW (tier 2 basis)
C    -0.82863  2.11190  2.75992
C    -0.82119  0.62318  2.66069
O    -0.74848  0.11652  1.48948
H    -1.03254  2.48549  3.76953
H    -1.57390  2.51482  2.05914
H    0.14685  2.49512  2.42205
N    -0.91003  -0.08679  3.80249
C    -1.04858  -1.53903  4.06273
C    0.21293  -2.34606  3.67892
O    0.39373  -2.79867  2.48227
H    -0.92810  0.49238  4.63941
H    -1.13346  -1.60008  5.15318
C    -2.34362  -2.17498  3.46056
C    -3.61466  -1.88028  4.20511
N    -4.17346  -2.75002  5.14124
C    -4.50329  -0.83767  4.10420
C    -5.34135  -2.26911  5.58538
N    -5.54604  -1.10466  4.96530
H    -2.20008  -3.26458  3.41627
H    -2.48144  -1.84867  2.42173
H    -3.80443  -3.65613  5.42536
H    -4.49811  0.04522  3.47684
H    -6.00115  -2.74249  6.30678
H    -6.37121  -0.51879  5.10133
N    1.10864  -2.67688  4.58748
C    1.18238  -2.44303  6.03408
H    1.88226  -3.23392  4.20667
H    0.41921  -1.73983  6.37535
H    2.17225  -2.02768  6.26348
H    1.07555  -3.39911  6.56345
Cd    0.12296  -1.65414  0.73257
