31
Energy: -173740.8004925  eV PBE+vdW (tier 2 basis)
C    -2.00277  4.40131  0.92282
C    -1.21731  3.21062  1.31380
O    -0.07889  3.37009  1.88068
H    -2.94934  4.15683  0.43042
H    -1.38418  4.97352  0.20602
H    -2.15369  5.07581  1.77761
N    -1.63782  1.93926  1.04015
C    -2.93511  1.38909  1.42435
C    -2.76694  0.77442  2.85659
O    -1.61276  0.66687  3.41526
H    -0.88405  1.24907  1.05212
H    -3.63050  2.23417  1.53847
C    -3.56620  0.47465  0.32480
C    -2.75802  -0.63348  -0.28733
N    -2.91815  -1.98577  0.01523
C    -1.88206  -0.60298  -1.34721
C    -2.18831  -2.74049  -0.81632
N    -1.54758  -1.90744  -1.64008
H    -3.85519  1.15245  -0.49058
H    -4.51608  0.06706  0.69986
H    -3.55079  -2.38143  0.70789
H    -1.51681  0.22703  -1.94095
H    -2.13701  -3.82539  -0.82564
H    -0.93449  -2.20822  -2.39941
N    -3.84952  0.36537  3.48568
C    -3.92156  -0.16584  4.85675
H    -4.74399  0.46203  3.00365
H    -2.91489  -0.33403  5.24273
H    -4.47981  -1.10975  4.84389
H    -4.46025  0.55159  5.49041
Cd    0.11802  1.95559  3.48434
