31
Energy: -173741.3452508  eV PBE+vdW (tier 2 basis)
C    1.62233  -0.43856  1.07933
C    0.94869  -0.68803  2.38701
O    1.69188  -1.01533  3.37401
H    2.26971  0.44679  1.17624
H    0.92612  -0.28705  0.24700
H    2.29067  -1.28176  0.85260
N    -0.39287  -0.57186  2.43873
C    -1.37423  -0.85350  3.51244
C    -1.25465  0.11630  4.71051
O    -0.44982  -0.11445  5.69461
H    -0.80796  -0.27395  1.55830
H    -2.34117  -0.64416  3.04195
C    -1.39929  -2.34524  3.97944
C    -2.08001  -3.30353  3.04411
N    -3.40838  -3.70303  3.18883
C    -1.59998  -4.02287  1.97686
C    -3.72297  -4.61939  2.26465
N    -2.63186  -4.81472  1.52038
H    -1.89680  -2.38789  4.95949
H    -0.37770  -2.71020  4.14597
H    -4.05625  -3.40724  3.91737
H    -0.61441  -4.06185  1.52933
H    -4.68202  -5.11623  2.14949
H    -2.57723  -5.47482  0.74319
N    -2.03891  1.17110  4.81020
C    -3.12075  1.68153  3.96103
H    -1.87529  1.71560  5.66497
H    -3.17954  1.15030  3.00818
H    -2.92746  2.74367  3.76136
H    -4.07538  1.59703  4.49714
Cd    1.56951  -0.67267  5.45631
