31
Energy: -173740.9963141  eV PBE+vdW (tier 2 basis)
C    -1.47071  3.38352  0.25255
C    -0.73595  2.48686  1.17374
O    0.23802  2.96139  1.85586
H    -0.72400  3.85289  -0.41211
H    -1.93107  4.21772  0.80278
H    -2.20893  2.86142  -0.36277
N    -1.02843  1.15824  1.28486
C    -2.35255  0.60570  1.57029
C    -2.57681  0.72141  3.12270
O    -1.59679  0.94989  3.92302
H    -0.27024  0.61518  1.70468
H    -3.10376  1.23646  1.07437
C    -2.48244  -0.86747  1.08988
C    -2.48661  -1.08265  -0.39988
N    -1.70752  -2.05843  -1.01568
C    -3.26259  -0.55225  -1.40224
C    -1.99069  -2.12789  -2.32246
N    -2.92978  -1.21126  -2.56650
H    -3.41110  -1.28902  1.50360
H    -1.67480  -1.46180  1.54422
H    -1.04218  -2.67978  -0.55796
H    -4.03618  0.20595  -1.38637
H    -1.54180  -2.80348  -3.04459
H    -3.34658  -1.04549  -3.48361
N    -3.79086  0.53545  3.59432
C    -4.20161  0.59264  5.00598
H    -4.52965  0.29951  2.93112
H    -4.42258  -0.42349  5.35992
H    -5.10981  1.20206  5.08089
H    -3.40024  1.02390  5.60831
Cd    0.12127  2.24682  3.88309
