31
Energy: -173740.8315202  eV PBE+vdW (tier 2 basis)
C    -2.15416  4.32575  0.74805
C    -1.23987  3.18265  0.96142
O    -0.02045  3.40976  1.28351
H    -3.16523  4.02757  0.45329
H    -1.72425  4.93238  -0.07096
H    -2.16875  4.99084  1.62325
N    -1.63589  1.88801  0.77422
C    -2.79782  1.27263  1.41022
C    -2.30456  0.63777  2.75808
O    -1.06062  0.63240  3.08789
H    -0.85887  1.24090  0.62606
H    -3.48366  2.08435  1.69724
C    -3.61467  0.34793  0.46057
C    -2.92214  -0.77654  -0.25989
N    -2.91504  -0.86158  -1.65116
C    -2.34961  -1.94850  0.17512
C    -2.37790  -2.02075  -2.04833
N    -2.02320  -2.68434  -0.94478
H    -4.07104  1.01191  -0.28664
H    -4.46804  -0.06667  1.01872
H    -3.30589  -0.17736  -2.29827
H    -2.18482  -2.33608  1.17294
H    -2.25758  -2.35894  -3.07358
H    -1.60114  -3.61397  -0.94523
N    -3.20446  0.10613  3.55840
C    -2.96905  -0.46135  4.89541
H    -4.17612  0.10294  3.24596
H    -1.91025  -0.38941  5.14839
H    -3.28412  -1.51249  4.90100
H    -3.57564  0.09107  5.62458
Cd    0.56686  2.02599  2.81652
