31
Energy: -173740.7616704  eV PBE+vdW (tier 2 basis)
C    -0.71386  0.29052  -0.47946
C    -0.60543  -0.23382  0.89966
O    0.40458  -0.95617  1.21560
H    0.18603  0.85574  -0.76090
H    -1.62471  0.87124  -0.65554
H    -0.73076  -0.58472  -1.15550
N    -1.57750  -0.02479  1.83740
C    -2.08407  1.28774  2.23520
C    -1.11581  1.83076  3.33198
O    -0.28664  1.03856  3.93033
H    -1.53167  -0.68313  2.61798
H    -1.99627  1.96074  1.36997
C    -3.59689  1.26828  2.61399
C    -4.10091  0.26024  3.60956
N    -5.01229  -0.73465  3.25702
C    -3.97737  0.16693  4.97600
C    -5.43176  -1.39355  4.34324
N    -4.80045  -0.85825  5.39189
H    -4.14274  1.12793  1.67082
H    -3.88079  2.27040  2.96289
H    -5.37213  -0.91710  2.32061
H    -3.41330  0.76177  5.68421
H    -6.15321  -2.20529  4.36762
H    -4.94333  -1.15257  6.35907
N    -1.13176  3.09949  3.68507
C    -1.96897  4.21160  3.21428
H    -0.44432  3.34232  4.40564
H    -2.77066  4.41865  3.93625
H    -2.39344  4.00559  2.22752
H    -1.33388  5.10261  3.14263
Cd    1.13180  -0.40221  3.16268
