31
Energy: -173741.3217513  eV PBE+vdW (tier 2 basis)
C    2.79953  -0.44280  2.08464
C    1.62941  -0.77817  2.94528
O    1.87897  -1.21035  4.12322
H    3.39097  0.34845  2.56876
H    2.52477  -0.13049  1.07096
H    3.45538  -1.32523  2.02541
N    0.39537  -0.62822  2.42550
C    -0.94917  -1.05791  2.88842
C    -1.43967  -0.24446  4.10844
O    -1.15476  -0.58557  5.31973
H    0.40262  -0.25601  1.47759
H    -1.60428  -0.78617  2.05232
C    -1.05560  -2.60258  3.07841
C    -2.44425  -3.17112  2.99162
N    -2.92182  -3.83782  1.86419
C    -3.45646  -3.25356  3.91737
C    -4.15443  -4.30921  2.08812
N    -4.48964  -3.95263  3.33074
H    -0.61368  -2.91594  4.03325
H    -0.43120  -3.06413  2.30089
H    -2.41186  -4.00691  0.99802
H    -3.51659  -2.90181  4.94023
H    -4.76245  -4.88074  1.39260
H    -5.37658  -4.19119  3.77696
N    -2.22367  0.79886  3.92690
C    -2.76901  1.36112  2.67870
H    -2.48661  1.28103  4.79189
H    -3.40078  2.21287  2.94721
H    -3.39134  0.62796  2.15113
H    -1.96243  1.72337  2.02937
Cd    0.82127  -1.06463  5.93312
