31
Energy: -173741.2608077  eV PBE+vdW (tier 2 basis)
C    -3.33323  -1.48409  -1.27391
C    -2.62953  -1.00896  -0.05080
O    -1.71001  -0.13448  -0.20242
H    -2.59853  -1.88913  -1.98454
H    -3.79991  -0.61800  -1.76898
H    -4.10337  -2.23569  -1.06610
N    -3.00439  -1.50408  1.14700
C    -2.59109  -1.01312  2.47110
C    -1.16631  -1.51117  2.83581
O    -0.19313  -0.66495  2.76867
H    -3.74841  -2.19940  1.11354
H    -2.47974  0.07899  2.39107
C    -3.73401  -1.25607  3.51017
C    -3.73409  -0.38925  4.73775
N    -3.30550  -0.79867  5.99962
C    -4.25702  0.86813  4.92367
C    -3.55546  0.15322  6.90848
N    -4.12574  1.17173  6.26038
H    -3.78987  -2.31136  3.80506
H    -4.67306  -1.04573  2.97660
H    -2.91757  -1.70621  6.24724
H    -4.73932  1.54719  4.22986
H    -3.34299  0.10124  7.97231
H    -4.44288  2.03323  6.70804
N    -0.88023  -2.74256  3.21182
C    -1.71924  -3.93958  3.34991
H    0.11724  -2.88615  3.40166
H    -1.97356  -4.12164  4.40252
H    -1.13547  -4.79687  2.99352
H    -2.62522  -3.86984  2.74389
Cd    -0.08334  0.51427  0.99205
