31
Energy: -173740.9369658  eV PBE+vdW (tier 2 basis)
C    -2.66746  3.28527  0.78206
C    -1.51582  2.48987  1.26797
O    -0.62872  3.06277  1.99097
H    -3.35307  2.72147  0.14257
H    -2.25672  4.13024  0.20033
H    -3.20709  3.74755  1.62118
N    -1.33886  1.17916  0.93098
C    -2.33809  0.12081  1.11252
C    -2.39763  -0.18930  2.64440
O    -1.39346  0.09296  3.40363
H    -0.38131  0.85274  1.08163
H    -3.31747  0.49901  0.78831
C    -1.96165  -1.15977  0.33162
C    -2.01643  -1.07580  -1.16914
N    -1.70135  -2.18378  -1.95259
C    -2.35920  -0.08802  -2.05714
C    -1.84642  -1.89342  -3.25127
N    -2.24581  -0.62296  -3.32551
H    -2.63685  -1.96560  0.65860
H    -0.95375  -1.48225  0.64465
H    -1.40539  -3.09959  -1.61606
H    -2.66915  0.93752  -1.90779
H    -1.67320  -2.56808  -4.08457
H    -2.43759  -0.13129  -4.19917
N    -3.44309  -0.78357  3.17917
C    -4.66388  -1.30421  2.55251
H    -3.36424  -0.94469  4.18882
H    -5.52057  -1.00441  3.16821
H    -4.62658  -2.40157  2.52138
H    -4.79771  -0.90649  1.54287
Cd    -0.15644  1.83140  3.69584
