31
Energy: -173741.2987627  eV PBE+vdW (tier 2 basis)
C    0.18607  -0.61900  0.30235
C    -0.01068  0.20293  1.52829
O    0.98487  0.87751  1.95385
H    0.49846  0.04714  -0.51768
H    -0.71172  -1.16730  -0.00368
H    1.01673  -1.32141  0.46136
N    -1.23007  0.21879  2.11405
C    -1.68148  1.12943  3.17682
C    -1.33419  0.56305  4.57522
O    -0.18868  0.81425  5.10007
H    -1.90076  -0.44626  1.73637
H    -1.05369  2.03001  3.08869
C    -3.11547  1.70964  2.94965
C    -4.35625  0.86098  2.89669
N    -4.90275  0.35002  1.71663
C    -5.29905  0.60315  3.86678
C    -6.10751  -0.18746  1.95289
N    -6.35035  -0.04784  3.25751
H    -3.05867  2.29369  2.01855
H    -3.26727  2.45547  3.74328
H    -4.52360  0.45619  0.77693
H    -5.33780  0.88773  4.91298
H    -6.76653  -0.64205  1.21802
H    -7.21100  -0.35042  3.71818
N    -2.18634  -0.18446  5.24201
C    -1.91258  -0.78546  6.56116
H    -3.09455  -0.36256  4.81814
H    -1.75881  0.00285  7.30826
H    -1.01471  -1.41251  6.50752
H    -2.77144  -1.39944  6.84348
Cd    1.48007  1.44793  3.93955
