31
Energy: -173740.5297921  eV PBE+vdW (tier 2 basis)
C    0.68186  -0.66167  1.64095
C    0.18252  0.40035  2.55994
O    0.98485  1.16818  3.22415
H    -0.08937  -1.36025  1.30496
H    1.46295  -1.24688  2.14674
H    1.13030  -0.19169  0.75125
N    -1.11039  0.64382  2.75757
C    -2.28107  0.11559  2.02991
C    -3.19674  1.34764  1.79876
O    -3.36753  2.12102  2.75839
H    -1.33290  1.43216  3.37765
H    -1.93872  -0.29943  1.07697
C    -3.03642  -1.02786  2.76360
C    -3.63050  -0.83650  4.13108
N    -4.14469  0.33462  4.66043
C    -3.91310  -1.82167  5.06442
C    -4.71368  0.09593  5.84894
N    -4.57902  -1.21412  6.09834
H    -2.37152  -1.90203  2.81659
H    -3.85123  -1.33343  2.08163
H    -4.06024  1.25386  4.19289
H    -3.71148  -2.88715  5.05429
H    -5.19238  0.82760  6.49279
H    -4.93102  -1.68275  6.93459
N    -3.80174  1.55196  0.61495
C    -3.76850  0.80152  -0.62958
H    -4.38845  2.39312  0.61635
H    -4.79668  0.54361  -0.92646
H    -3.34781  1.43063  -1.43010
H    -3.18275  -0.11682  -0.54192
Cd    3.11175  1.32924  3.34717
