31
Energy: -173741.0950480  eV PBE+vdW (tier 2 basis)
C    -1.60886  0.63163  -0.49601
C    -1.07958  0.63758  0.89566
O    0.11187  1.06239  1.07994
H    -0.95332  0.02850  -1.13996
H    -1.55844  1.66079  -0.88706
H    -2.64075  0.27172  -0.57072
N    -1.88430  0.22583  1.89778
C    -1.75591  0.48772  3.34345
C    -0.97306  -0.63651  4.08014
O    0.14872  -1.00718  3.56371
H    -2.79751  -0.10757  1.59407
H    -1.06250  1.34280  3.44162
C    -3.09568  1.04456  3.89196
C    -4.37967  0.30764  3.61724
N    -5.60017  0.97484  3.70782
C    -4.70306  -0.99205  3.30416
C    -6.61407  0.13430  3.47175
N    -6.08105  -1.06241  3.22044
H    -3.19341  2.05166  3.45768
H    -2.98821  1.21368  4.97416
H    -5.73278  1.96077  3.93561
H    -4.08756  -1.87067  3.14990
H    -7.67212  0.38246  3.48111
H    -6.62428  -1.89966  3.00429
N    -1.29317  -1.21261  5.22385
C    -2.44443  -1.14171  6.13462
H    -0.54254  -1.83006  5.55130
H    -3.38354  -1.00422  5.59728
H    -2.29451  -0.33722  6.86768
H    -2.49228  -2.09257  6.67559
Cd    1.49918  0.11758  2.36696
