31
Energy: -173740.9270648  eV PBE+vdW (tier 2 basis)
C    0.32344  -0.86999  0.24505
C    0.25862  -0.00320  1.44222
O    1.34917  0.36276  2.00523
H    0.85257  -1.79294  0.54735
H    0.94919  -0.41809  -0.53746
H    -0.65994  -1.15372  -0.14126
N    -0.92292  0.37700  2.01123
C    -2.05506  1.01045  1.33621
C    -1.70642  2.52696  1.18909
O    -0.77066  3.08167  1.87168
H    -0.83569  0.63440  2.99754
H    -2.15085  0.57524  0.33159
C    -3.34902  0.73750  2.18028
C    -4.69327  0.94712  1.54992
N    -5.36653  -0.03428  0.81988
C    -5.58933  1.98216  1.67486
C    -6.60511  0.37559  0.52025
N    -6.74664  1.60229  1.02917
H    -3.31239  1.34387  3.09703
H    -3.27912  -0.31068  2.50819
H    -5.02216  -0.96572  0.59176
H    -5.51461  2.92502  2.20427
H    -7.35569  -0.18746  -0.02740
H    -7.60427  2.15374  0.96999
N    -2.42153  3.26289  0.36346
C    -2.20492  4.69934  0.11148
H    -3.18292  2.81178  -0.14002
H    -2.86368  5.00681  -0.70467
H    -1.16229  4.87418  -0.17813
H    -2.43225  5.28245  1.01227
Cd    1.16227  2.42484  2.57990
