31
Energy: -173740.8313988  eV PBE+vdW (tier 2 basis)
C    -0.75021  -0.13821  -0.26749
C    -0.24980  -0.17218  1.12407
O    0.95383  -0.55216  1.34601
H    -0.09054  0.45952  -0.91235
H    -1.79284  0.18499  -0.34911
H    -0.68200  -1.17100  -0.65814
N    -1.04494  0.13609  2.19211
C    -1.80315  1.37617  2.33562
C    -0.87747  2.40007  3.08253
O    0.28183  2.06340  3.52855
H    -0.70233  -0.24038  3.07829
H    -1.95023  1.78995  1.32627
C    -3.23211  1.17205  2.91844
C    -3.40463  0.45668  4.23062
N    -4.19633  -0.68504  4.34232
C    -3.04208  0.77076  5.51922
C    -4.32051  -1.04724  5.62422
N    -3.61485  -0.17282  6.34637
H    -3.79583  0.62772  2.14813
H    -3.73049  2.15141  2.98456
H    -4.66934  -1.16689  3.57816
H    -2.46648  1.59653  5.91902
H    -4.89041  -1.89016  6.00469
H    -3.54425  -0.19470  7.36463
N    -1.31672  3.63073  3.24212
C    -0.58062  4.75919  3.83359
H    -2.25409  3.84892  2.90230
H    -0.51439  5.56460  3.09080
H    0.41688  4.43531  4.13424
H    -1.13193  5.13101  4.70664
Cd    1.83317  0.73867  2.81900
