31
Energy: -173740.7130714  eV PBE+vdW (tier 2 basis)
C    0.12743  -0.44914  -0.17016
C    0.14877  -0.18380  1.28970
O    1.26783  0.12200  1.83076
H    -0.79476  -0.10951  -0.65017
H    0.26514  -1.52932  -0.35504
H    0.99511  0.04550  -0.62766
N    -0.96084  -0.21475  2.08644
C    -1.98126  -1.26799  2.22663
C    -1.29511  -2.49935  2.90535
O    -0.20848  -2.37709  3.57741
H    -0.85528  0.35069  2.93011
H    -2.66546  -0.86343  2.98945
C    -2.80482  -1.52448  0.93739
C    -4.22788  -1.98265  1.13562
N    -5.00615  -2.37635  0.04806
C    -5.07578  -2.01325  2.21710
C    -6.26181  -2.62815  0.43819
N    -6.31328  -2.41540  1.75367
H    -2.27991  -2.22642  0.27188
H    -2.84948  -0.56239  0.40386
H    -4.69979  -2.44782  -0.92197
H    -4.92574  -1.76688  3.26136
H    -7.08174  -2.94896  -0.19858
H    -7.15418  -2.52593  2.32256
N    -1.87962  -3.67767  2.85362
C    -1.37286  -4.89563  3.51306
H    -2.77335  -3.74778  2.37076
H    -1.43387  -4.78729  4.60311
H    -0.33159  -5.07262  3.22238
H    -1.98927  -5.73936  3.19282
Cd    1.45900  -1.01854  3.64412
