31
Energy: -173740.8116393  eV PBE+vdW (tier 2 basis)
C    -1.02170  3.59649  1.54103
C    -0.64801  2.35347  2.25106
O    -0.19577  2.42971  3.44690
H    -0.10711  4.21574  1.48071
H    -1.73756  4.18944  2.12712
H    -1.37980  3.42460  0.52167
N    -0.70645  1.12464  1.65923
C    -1.87435  0.52939  1.00187
C    -2.85399  0.11856  2.14109
O    -2.39509  -0.18189  3.30921
H    -0.10446  0.43214  2.11131
H    -2.34289  1.28605  0.36010
C    -1.35795  -0.68486  0.15654
C    -2.25815  -1.34027  -0.84561
N    -2.39334  -0.90869  -2.16571
C    -2.95930  -2.51936  -0.77604
C    -3.13323  -1.77791  -2.86573
N    -3.48787  -2.75513  -2.02707
H    -1.01254  -1.46779  0.84796
H    -0.45823  -0.32334  -0.36483
H    -1.94385  -0.09842  -2.58956
H    -3.08989  -3.22052  0.04015
H    -3.38641  -1.70689  -3.91972
H    -4.03896  -3.57163  -2.29648
N    -4.15389  0.03264  1.94290
C    -4.95540  0.27410  0.73983
H    -4.68567  -0.23982  2.77612
H    -5.45175  -0.65600  0.43730
H    -4.33842  0.64371  -0.08204
H    -5.72636  1.01856  0.97683
Cd    -1.04059  0.85228  4.64186
