29
Energy: -19156.534572 eV PBE+vdW (tier 2 basis)
C    -0.603083  0.541991  0.042590
C    -0.199464  0.817607  1.480513
O    0.648390  1.660867  1.763112
H    -0.285722  1.393217  -0.565708
H    -1.682856  0.384705  -0.082515
H    -0.090941  -0.357131  -0.327888
N    -0.808496  0.080587  2.464389
C    -1.817026  -0.952792  2.350949
C    -2.468687  -1.082242  3.744170
O    -1.883518  -0.726778  4.766082
H    -0.543226  0.308426  3.423318
H    -2.595350  -0.641624  1.634160
C    -1.262507  -2.322051  1.881448
C    -0.147509  -2.867345  2.766638
C    0.532596  -4.085508  2.146238
O    0.434579  -4.378536  0.959477
N    1.272306  -4.834761  3.020751
H    -0.883377  -2.223002  0.856460
H    -2.089102  -3.046471  1.823319
H    -0.514234  -3.113075  3.774528
H    0.624200  -2.091944  2.905253
H    1.434566  -4.537354  3.973823
H    1.837917  -5.586285  2.645061
N    -3.704411  -1.651363  3.744819
C    -4.448178  -1.924845  4.961245
H    -4.123082  -1.891246  2.854013
H    -5.410660  -1.395663  4.962589
H    -3.846166  -1.568902  5.803407
H    -4.632686  -3.001414  5.081870
