29
Energy: -19156.3489545 eV PBE+vdW (tier 2 basis)
C    -0.067536  0.272081  0.374017
C    -0.191504  0.161242  1.881958
O    0.795234  0.172395  2.612752
H    -0.741626  -0.403401  -0.166833
H    0.967217  0.039887  0.108250
H    -0.283212  1.300907  0.051765
N    -1.453464  0.093438  2.429179
C    -2.747668  -0.039207  1.770461
C    -2.831894  -1.368953  0.961688
O    -2.277701  -2.382613  1.371314
H    -1.422740  -0.089922  3.426388
H    -3.462590  -0.199282  2.594286
C    -3.201442  1.233622  1.032295
C    -3.101862  2.492114  1.891623
C    -3.775633  3.686579  1.216780
O    -4.718862  3.565941  0.441544
N    -3.265264  4.906120  1.559152
H    -4.254289  1.133840  0.730004
H    -2.621857  1.379760  0.109201
H    -2.055717  2.717640  2.140432
H    -3.618594  2.333657  2.853793
H    -2.487772  5.007180  2.197293
H    -3.707522  5.738430  1.188342
N    -3.582191  -1.330743  -0.176687
C    -3.815214  -2.506934  -0.994835
H    -3.992806  -0.450955  -0.462877
H    -4.885817  -2.749007  -1.046270
H    -3.281124  -3.342767  -0.531341
H    -3.435025  -2.360478  -2.015210
