29
Energy: -19156.2238634 eV PBE+vdW (tier 2 basis)
C    -1.065259  -1.193736  2.283616
C    -1.279914  -0.242687  3.444167
O    -0.965138  -0.572065  4.587525
H    -0.596939  -2.093108  2.691865
H    -0.410009  -0.764338  1.516440
H    -2.008704  -1.474000  1.798884
N    -1.818333  1.013538  3.247898
C    -2.388750  1.789235  2.141510
C    -3.860902  2.191471  2.420262
O    -4.169614  3.387223  2.358075
H    -1.863980  1.500057  4.141234
H    -1.889938  2.770784  2.164644
C    -2.180000  1.236490  0.721951
C    -2.848544  2.107023  -0.351014
C    -4.320157  1.738959  -0.555233
O    -4.679172  0.570294  -0.685425
N    -5.183350  2.792455  -0.648011
H    -2.575097  0.221063  0.607019
H    -1.099080  1.190412  0.534702
H    -2.361347  1.910293  -1.317337
H    -2.723764  3.178071  -0.140752
H    -4.935419  3.672748  -0.210029
H    -6.171063  2.566081  -0.696462
N    -4.785115  1.245795  2.737616
C    -4.696565  -0.207082  2.664204
H    -5.707713  1.648089  2.872730
H    -5.653535  -0.618187  3.001503
H    -3.915176  -0.595848  3.326715
H    -4.526533  -0.552568  1.634445
