29
Energy: -19156.4000671 eV PBE+vdW (tier 2 basis)
C    -0.371922  -1.242578  0.923882
C    -0.905960  -1.395770  2.333774
O    -0.309297  -2.053310  3.184721
H    0.694439  -1.483100  0.945587
H    -0.522741  -0.245115  0.496701
H    -0.873712  -1.958556  0.257089
N    -2.114553  -0.815073  2.646449
C    -2.986889  0.066118  1.869510
C    -3.300044  -0.489625  0.464241
O    -3.038407  0.136387  -0.564150
H    -2.370242  -0.962481  3.618837
H    -3.939006  0.076867  2.422378
C    -2.489173  1.520983  1.833974
C    -3.522538  2.536026  1.344837
C    -4.761153  2.641089  2.231590
O    -4.892658  2.035472  3.293858
N    -5.733998  3.475472  1.757816
H    -1.600487  1.592356  1.193228
H    -2.181371  1.773981  2.857373
H    -3.825838  2.300214  0.314044
H    -3.057087  3.533779  1.304561
H    -5.640062  3.974278  0.883477
H    -6.573988  3.602994  2.308365
N    -3.909854  -1.709860  0.408430
C    -4.322944  -2.576609  1.500686
H    -4.071697  -2.029006  -0.541488
H    -5.067061  -3.284409  1.118543
H    -4.798464  -2.001039  2.305480
H    -3.484735  -3.143695  1.930052
