29
Energy: -19156.7412667 eV PBE+vdW (tier 2 basis)
C    -0.224367  0.042697  -0.288896
C    -0.038752  -0.245813  1.194240
O    1.069526  -0.472760  1.674403
H    0.743143  -0.092270  -0.779275
H    -0.561394  1.076835  -0.450792
H    -0.961942  -0.622492  -0.759148
N    -1.162264  -0.229639  1.976315
C    -2.528719  0.040546  1.577281
C    -3.218896  0.745947  2.766275
O    -2.888078  0.488583  3.925468
H    -1.023284  -0.348479  2.979971
H    -2.531260  0.717510  0.713387
C    -3.266943  -1.271801  1.205296
C    -4.710437  -1.116110  0.682279
C    -4.799489  -0.185189  -0.517854
O    -4.818773  1.045434  -0.405810
N    -4.813249  -0.783707  -1.739155
H    -3.281829  -1.918105  2.094669
H    -2.656934  -1.790965  0.451228
H    -5.355524  -0.697910  1.465669
H    -5.105506  -2.111366  0.433788
H    -4.825473  -1.788538  -1.847101
H    -4.843392  -0.201052  -2.567703
N    -4.190079  1.622097  2.413760
C    -4.999347  2.321313  3.393279
H    -4.439670  1.679067  1.420577
H    -6.044402  1.978355  3.369239
H    -4.982640  3.403545  3.207946
H    -4.583559  2.119955  4.385939
