29
Energy: -19156.4906253 eV PBE+vdW (tier 2 basis)
C    -0.546425  0.294212  -0.207922
C    -0.212995  0.630763  1.230181
O    0.650638  1.446617  1.542760
H    0.078781  0.911970  -0.857113
H    -1.605475  0.481797  -0.431715
H    -0.350771  -0.765927  -0.423101
N    -0.935472  -0.022493  2.206996
C    -1.970338  -1.031887  2.041998
C    -3.350801  -0.497329  1.584161
O    -4.159610  -1.267022  1.075062
H    -0.617571  0.199712  3.145412
H    -1.681986  -1.727454  1.240320
C    -2.126746  -1.886154  3.321379
C    -2.202833  -1.135902  4.661783
C    -3.430876  -0.241882  4.830163
O    -4.567948  -0.635169  4.610623
N    -3.168261  1.044267  5.236248
H    -1.277134  -2.581558  3.375599
H    -3.034370  -2.490083  3.194577
H    -1.275903  -0.577717  4.868864
H    -2.270679  -1.892884  5.457859
H    -2.255096  1.317020  5.576062
H    -3.960377  1.620806  5.497913
N    -3.570913  0.827572  1.786552
C    -4.879896  1.424760  1.610136
H    -2.850915  1.348153  2.275620
H    -4.781823  2.452798  1.241408
H    -5.448660  1.424071  2.553025
H    -5.432919  0.825726  0.879075
