29
Energy: -19156.5646687 eV PBE+vdW (tier 2 basis)
C    -0.078861  -0.614871  -0.063436
C    -0.228769  0.109587  1.260628
O    0.656493  0.816530  1.731218
H    0.868295  -0.304400  -0.511412
H    -0.902107  -0.390216  -0.755340
H    -0.058716  -1.704326  0.084009
N    -1.428916  -0.043776  1.926215
C    -2.555964  -0.889840  1.562304
C    -3.633993  -0.195619  0.690437
O    -4.629640  -0.820694  0.325583
H    -1.437863  0.400845  2.841086
H    -2.184613  -1.720877  0.945636
C    -3.231344  -1.510245  2.796742
C    -3.927530  -0.487859  3.712771
C    -4.721948  -1.203569  4.801441
O    -4.237036  -1.500653  5.886652
N    -6.011370  -1.509697  4.459388
H    -2.485723  -2.079068  3.369220
H    -3.974553  -2.224638  2.420041
H    -4.588894  0.159123  3.117129
H    -3.201229  0.152006  4.231215
H    -6.370240  -1.346658  3.527354
H    -6.553394  -2.082359  5.095134
N    -3.391085  1.103820  0.384990
C    -4.286447  1.904194  -0.426708
H    -2.541342  1.512580  0.760254
H    -4.675512  2.761833  0.139396
H    -5.123517  1.264984  -0.727572
H    -3.777879  2.276570  -1.326453
