29
Energy: -19156.4287672 eV PBE+vdW (tier 2 basis)
C    -0.402427  -0.824845  -0.212364
C    -0.295573  -0.236976  1.176522
O    0.777184  -0.078046  1.753046
H    0.596366  -0.833427  -0.656177
H    -1.086724  -0.263535  -0.863059
H    -0.767274  -1.858969  -0.136504
N    -1.469647  0.115534  1.808296
C    -2.852635  -0.076687  1.372194
C    -3.679247  1.046697  2.033890
O    -4.384137  0.846272  3.022242
H    -1.320700  0.436425  2.761671
H    -2.881423  0.079388  0.283864
C    -3.445918  -1.472992  1.657704
C    -3.036567  -2.094631  2.995193
C    -1.625070  -2.677754  2.940055
O    -1.208810  -3.292624  1.960867
N    -0.870857  -2.513264  4.065717
H    -3.127473  -2.159164  0.861040
H    -4.539341  -1.390192  1.606586
H    -3.708881  -2.939509  3.209736
H    -3.161486  -1.381098  3.820778
H    -1.160956  -1.890523  4.807423
H    0.102203  -2.794509  4.028117
N    -3.559621  2.289753  1.481695
C    -2.756045  2.691108  0.337133
H    -4.085817  3.003772  1.975089
H    -2.882039  3.768498  0.189110
H    -3.077245  2.190011  -0.588220
H    -1.687568  2.489623  0.495036
