29
Energy: -19156.5264425 eV PBE+vdW (tier 2 basis)
C    -0.808193  1.581006  -0.147688
C    -0.236771  1.235738  1.212625
O    0.792355  1.743014  1.651062
H    -0.101588  2.242653  -0.654590
H    -1.776665  2.093481  -0.057321
H    -0.973539  0.683860  -0.760001
N    -0.926583  0.307850  1.960767
C    -2.225480  -0.276595  1.676649
C    -3.419061  0.705600  1.702521
O    -4.323433  0.580989  0.864669
H    -0.493952  0.111519  2.859261
H    -2.228858  -0.653741  0.643950
C    -2.467552  -1.472664  2.620763
C    -3.787261  -2.225016  2.388684
C    -3.818802  -2.950641  1.039176
O    -3.320086  -4.064449  0.897987
N    -4.435845  -2.269568  0.031677
H    -2.437738  -1.122155  3.664967
H    -1.626278  -2.170082  2.492863
H    -4.644466  -1.545021  2.489887
H    -3.881410  -3.002116  3.156613
H    -4.634208  -1.271755  0.130542
H    -4.393699  -2.675245  -0.896334
N    -3.489105  1.685644  2.641707
C    -2.603663  2.004923  3.755535
H    -4.321535  2.257527  2.532723
H    -2.353492  1.114460  4.345492
H    -3.137169  2.694206  4.419016
H    -1.672692  2.487738  3.430572
