29
Energy: -19156.2192902 eV PBE+vdW (tier 2 basis)
C    0.723436  -1.107780  0.285082
C    0.513289  -0.770050  1.752022
O    1.268740  -1.176961  2.630287
H    1.766736  -0.899260  0.021183
H    0.062504  -0.558766  -0.397446
H    0.560233  -2.184570  0.146248
N    -0.569631  0.032450  2.013349
C    -1.065689  0.281934  3.370747
C    -2.479364  0.893824  3.368425
O    -3.263872  0.550599  4.246741
H    -1.241528  0.150328  1.263229
H    -1.235591  -0.689667  3.858991
C    -0.067883  1.021921  4.301504
C    0.681539  2.224378  3.734679
C    -0.057635  3.554843  3.847675
O    -1.121906  3.692797  4.439467
N    0.555135  4.605832  3.211776
H    0.673322  0.276415  4.607656
H    -0.631602  1.325610  5.193838
H    0.974364  2.052595  2.686631
H    1.630585  2.336968  4.283481
H    1.499391  4.527840  2.856017
H    0.186690  5.534853  3.378939
N    -2.897531  1.715031  2.344216
C    -2.134977  2.646005  1.521078
H    -3.866835  1.982991  2.502548
H    -1.084841  2.347692  1.469502
H    -2.174709  3.664567  1.931651
H    -2.536484  2.657761  0.497844
